LAMMPS (22 Jul 2025 - Update 4)
  using 11 OpenMP thread(s) per MPI task
using multi-threaded neighbor list subroutines
Reading data file ...
  orthogonal box = (-37.561815 -37.561815 -37.561815) to (37.561815 37.561815 37.561815)
  1 by 1 by 1 MPI processor grid
  reading atoms ...
  357911 atoms
  read_data CPU = 0.614 seconds
N        = 357911
atoms    = 357911
L        = 75.1236301880358
spacing  = 1.05807929842304
rho      = 0.8442
dt       = 0.005
steps    = 200
Generated 0 of 0 mixed pair_coeff terms from geometric mixing rule
Last active /omp style is pair_style lj/cut/omp
Neighbor list info ...
  update: every = 1 steps, delay = 0 steps, check = yes
  max neighbors/atom: 2000, page size: 100000
  master list distance cutoff = 2.8
  ghost atom cutoff = 2.8
  binsize = 1.4, bins = 54 54 54
  1 neighbor lists, perpetual/occasional/extra = 1 0 0
  (1) pair lj/cut/omp, perpetual
      attributes: half, newton on, omp
      pair build: half/bin/atomonly/newton/omp
      stencil: half/bin/3d
      bin: standard
Setting up Verlet run ...
  Unit style    : lj
  Current step  : 0
  Time step     : 0.005
Per MPI rank memory allocation (min/avg/max) = 277 | 277 | 277 Mbytes
   Step        Atoms         Temp          PotEng         KinEng         TotEng         Press     
         0      357911   1             -5.2202185      1.4999958     -3.7202227      2.6664636    
Loop time of 1.086e-06 on 11 procs for 0 steps with 357911 atoms

3959.5% CPU use with 1 MPI tasks x 11 OpenMP threads

MPI task timing breakdown:
Section |  min time  |  avg time  |  max time  |%varavg| %total
---------------------------------------------------------------
Pair    | 0          | 0          | 0          |   0.0 |  0.00
Neigh   | 0          | 0          | 0          |   0.0 |  0.00
Comm    | 0          | 0          | 0          |   0.0 |  0.00
Output  | 0          | 0          | 0          |   0.0 |  0.00
Modify  | 0          | 0          | 0          |   0.0 |  0.00
Other   |            | 1.086e-06  |            |       |100.00

Nlocal:         357911 ave      357911 max      357911 min
Histogram: 1 0 0 0 0 0 0 0 0 0
Nghost:          98622 ave       98622 max       98622 min
Histogram: 1 0 0 0 0 0 0 0 0 0
Neighs:    1.43164e+07 ave 1.43164e+07 max 1.43164e+07 min
Histogram: 1 0 0 0 0 0 0 0 0 0

Total # of neighbors = 14316440
Ave neighs/atom = 40
Neighbor list builds = 0
Dangerous builds = 0
Generated 0 of 0 mixed pair_coeff terms from geometric mixing rule
Last active /omp style is pair_style lj/cut/omp
Setting up Verlet run ...
  Unit style    : lj
  Current step  : 0
  Time step     : 0.005
Per MPI rank memory allocation (min/avg/max) = 277 | 277 | 277 Mbytes
   Step        Atoms         Temp          PotEng         KinEng         TotEng         Press     
         0      357911   1             -5.2202185      1.4999958     -3.7202227      2.6664636    
        20      357911   0.67540202    -4.746814       1.0131002     -3.7337138      4.4935967    
Loop time of 0.278261 on 11 procs for 20 steps with 357911 atoms

Generated 0 of 0 mixed pair_coeff terms from geometric mixing rule
Last active /omp style is pair_style lj/cut/omp
Setting up Verlet run ...
  Unit style    : lj
  Current step  : 0
  Time step     : 0.005
Per MPI rank memory allocation (min/avg/max) = 277 | 277 | 277 Mbytes
   Step        Atoms         Temp          PotEng         KinEng         TotEng         Press     
         0      357911   0.67540202    -4.746814       1.0131002     -3.7337138      4.4935967    
       200      357911   1.0513809     -5.2853146      1.5770669     -3.7082478      2.8712988    
Loop time of 4.30498 on 11 procs for 200 steps with 357911 atoms

Performance: 20069.796 tau/day, 46.458 timesteps/s, 16.628 Matom-step/s
1095.3% CPU use with 1 MPI tasks x 11 OpenMP threads

MPI task timing breakdown:
Section |  min time  |  avg time  |  max time  |%varavg| %total
---------------------------------------------------------------
Pair    | 2.1026     | 2.1026     | 2.1026     |   0.0 | 48.84
Neigh   | 1.4372     | 1.4372     | 1.4372     |   0.0 | 33.38
Comm    | 0.32813    | 0.32813    | 0.32813    |   0.0 |  7.62
Output  | 0.0014908  | 0.0014908  | 0.0014908  |   0.0 |  0.03
Modify  | 0.18509    | 0.18509    | 0.18509    |   0.0 |  4.30
Other   |            | 0.2506     |            |       |  5.82

Nlocal:         357911 ave      357911 max      357911 min
Histogram: 1 0 0 0 0 0 0 0 0 0
Nghost:          86426 ave       86426 max       86426 min
Histogram: 1 0 0 0 0 0 0 0 0 0
Neighs:    1.35035e+07 ave 1.35035e+07 max 1.35035e+07 min
Histogram: 1 0 0 0 0 0 0 0 0 0

Total # of neighbors = 13503463
Ave neighs/atom = 37.72855
Neighbor list builds = 31
Dangerous builds = 0
Total wall time: 0:00:05
