LAMMPS (22 Jul 2025 - Update 4)
  using 3 OpenMP thread(s) per MPI task
using multi-threaded neighbor list subroutines
Reading data file ...
  orthogonal box = (-24.335824 -24.335824 -24.335824) to (24.335824 24.335824 24.335824)
  1 by 1 by 1 MPI processor grid
  reading atoms ...
  97336 atoms
  read_data CPU = 0.172 seconds
N        = 97336
atoms    = 97336
L        = 48.6716477274598
spacing  = 1.05807929842304
rho      = 0.8442
dt       = 0.005
steps    = 200
Generated 0 of 0 mixed pair_coeff terms from geometric mixing rule
Last active /omp style is pair_style lj/cut/omp
Neighbor list info ...
  update: every = 1 steps, delay = 0 steps, check = yes
  max neighbors/atom: 2000, page size: 100000
  master list distance cutoff = 2.8
  ghost atom cutoff = 2.8
  binsize = 1.4, bins = 35 35 35
  1 neighbor lists, perpetual/occasional/extra = 1 0 0
  (1) pair lj/cut/omp, perpetual
      attributes: half, newton on, omp
      pair build: half/bin/atomonly/newton/omp
      stencil: half/bin/3d
      bin: standard
Setting up Verlet run ...
  Unit style    : lj
  Current step  : 0
  Time step     : 0.005
Per MPI rank memory allocation (min/avg/max) = 50.05 | 50.05 | 50.05 Mbytes
   Step        Atoms         Temp          PotEng         KinEng         TotEng         Press     
         0       97336   1             -5.2202185      1.4999846     -3.7202339      2.6664572    
Loop time of 5.43e-07 on 3 procs for 0 steps with 97336 atoms

368.3% CPU use with 1 MPI tasks x 3 OpenMP threads

MPI task timing breakdown:
Section |  min time  |  avg time  |  max time  |%varavg| %total
---------------------------------------------------------------
Pair    | 0          | 0          | 0          |   0.0 |  0.00
Neigh   | 0          | 0          | 0          |   0.0 |  0.00
Comm    | 0          | 0          | 0          |   0.0 |  0.00
Output  | 0          | 0          | 0          |   0.0 |  0.00
Modify  | 0          | 0          | 0          |   0.0 |  0.00
Other   |            | 5.43e-07   |            |       |100.00

Nlocal:          97336 ave       97336 max       97336 min
Histogram: 1 0 0 0 0 0 0 0 0 0
Nghost:          43272 ave       43272 max       43272 min
Histogram: 1 0 0 0 0 0 0 0 0 0
Neighs:    3.89344e+06 ave 3.89344e+06 max 3.89344e+06 min
Histogram: 1 0 0 0 0 0 0 0 0 0

Total # of neighbors = 3893440
Ave neighs/atom = 40
Neighbor list builds = 0
Dangerous builds = 0
Generated 0 of 0 mixed pair_coeff terms from geometric mixing rule
Last active /omp style is pair_style lj/cut/omp
Setting up Verlet run ...
  Unit style    : lj
  Current step  : 0
  Time step     : 0.005
Per MPI rank memory allocation (min/avg/max) = 50.05 | 50.05 | 50.05 Mbytes
   Step        Atoms         Temp          PotEng         KinEng         TotEng         Press     
         0       97336   1             -5.2202185      1.4999846     -3.7202339      2.6664572    
        20       97336   0.67540676    -4.7468358      1.0130997     -3.7337361      4.4940421    
Loop time of 0.201663 on 3 procs for 20 steps with 97336 atoms

Generated 0 of 0 mixed pair_coeff terms from geometric mixing rule
Last active /omp style is pair_style lj/cut/omp
Setting up Verlet run ...
  Unit style    : lj
  Current step  : 0
  Time step     : 0.005
Per MPI rank memory allocation (min/avg/max) = 50.05 | 50.05 | 50.05 Mbytes
   Step        Atoms         Temp          PotEng         KinEng         TotEng         Press     
         0       97336   0.67540676    -4.7468358      1.0130997     -3.7337361      4.4940421    
       200       97336   1.0512235     -5.2851069      1.576819      -3.708288       2.8610688    
Loop time of 3.48597 on 3 procs for 200 steps with 97336 atoms

Performance: 24785.079 tau/day, 57.373 timesteps/s, 5.584 Matom-step/s
299.5% CPU use with 1 MPI tasks x 3 OpenMP threads

MPI task timing breakdown:
Section |  min time  |  avg time  |  max time  |%varavg| %total
---------------------------------------------------------------
Pair    | 1.973      | 1.973      | 1.973      |   0.0 | 56.60
Neigh   | 1.3028     | 1.3028     | 1.3028     |   0.0 | 37.37
Comm    | 0.092163   | 0.092163   | 0.092163   |   0.0 |  2.64
Output  | 0.00035968 | 0.00035968 | 0.00035968 |   0.0 |  0.01
Modify  | 0.072186   | 0.072186   | 0.072186   |   0.0 |  2.07
Other   |            | 0.04553    |            |       |  1.31

Nlocal:          97336 ave       97336 max       97336 min
Histogram: 1 0 0 0 0 0 0 0 0 0
Nghost:          37731 ave       37731 max       37731 min
Histogram: 1 0 0 0 0 0 0 0 0 0
Neighs:    3.67224e+06 ave 3.67224e+06 max 3.67224e+06 min
Histogram: 1 0 0 0 0 0 0 0 0 0

Total # of neighbors = 3672244
Ave neighs/atom = 37.727501
Neighbor list builds = 30
Dangerous builds = 0
Total wall time: 0:00:04
