LAMMPS (22 Jul 2025 - Update 4)
  using 45 OpenMP thread(s) per MPI task
using multi-threaded neighbor list subroutines
Reading data file ...
  orthogonal box = (-60.31052 -60.31052 -60.31052) to (60.31052 60.31052 60.31052)
  1 by 1 by 1 MPI processor grid
  reading atoms ...
  1481544 atoms
  read_data CPU = 2.635 seconds
N        = 1481544
atoms    = 1481544
L        = 120.621040020226
spacing  = 1.05807929842304
rho      = 0.8442
dt       = 0.005
steps    = 500
Generated 0 of 0 mixed pair_coeff terms from geometric mixing rule
Last active /omp style is pair_style lj/cut/omp
Neighbor list info ...
  update: every = 1 steps, delay = 0 steps, check = yes
  max neighbors/atom: 2000, page size: 100000
  master list distance cutoff = 2.8
  ghost atom cutoff = 2.8
  binsize = 1.4, bins = 87 87 87
  1 neighbor lists, perpetual/occasional/extra = 1 0 0
  (1) pair lj/cut/omp, perpetual
      attributes: half, newton on, omp
      pair build: half/bin/atomonly/newton/omp
      stencil: half/bin/3d
      bin: standard
Setting up Verlet run ...
  Unit style    : lj
  Current step  : 0
  Time step     : 0.005
Per MPI rank memory allocation (min/avg/max) = 2868 | 2868 | 2868 Mbytes
   Step        Atoms         Temp          PotEng         KinEng         TotEng         Press     
         0     1481544   1             -5.2202185      1.499999      -3.7202195      2.6664653    
Loop time of 2.005e-06 on 45 procs for 0 steps with 1481544 atoms

14414.0% CPU use with 1 MPI tasks x 45 OpenMP threads

MPI task timing breakdown:
Section |  min time  |  avg time  |  max time  |%varavg| %total
---------------------------------------------------------------
Pair    | 0          | 0          | 0          |   0.0 |  0.00
Neigh   | 0          | 0          | 0          |   0.0 |  0.00
Comm    | 0          | 0          | 0          |   0.0 |  0.00
Output  | 0          | 0          | 0          |   0.0 |  0.00
Modify  | 0          | 0          | 0          |   0.0 |  0.00
Other   |            | 2.005e-06  |            |       |100.00

Nlocal:    1.48154e+06 ave 1.48154e+06 max 1.48154e+06 min
Histogram: 1 0 0 0 0 0 0 0 0 0
Nghost:         246456 ave      246456 max      246456 min
Histogram: 1 0 0 0 0 0 0 0 0 0
Neighs:    5.92618e+07 ave 5.92618e+07 max 5.92618e+07 min
Histogram: 1 0 0 0 0 0 0 0 0 0

Total # of neighbors = 59261760
Ave neighs/atom = 40
Neighbor list builds = 0
Dangerous builds = 0
Generated 0 of 0 mixed pair_coeff terms from geometric mixing rule
Last active /omp style is pair_style lj/cut/omp
Setting up Verlet run ...
  Unit style    : lj
  Current step  : 0
  Time step     : 0.005
Per MPI rank memory allocation (min/avg/max) = 2868 | 2868 | 2868 Mbytes
   Step        Atoms         Temp          PotEng         KinEng         TotEng         Press     
         0     1481544   1             -5.2202185      1.499999      -3.7202195      2.6664653    
        50     1481544   1.0278162     -5.2572108      1.5417233     -3.7154875      2.6458829    
Loop time of 2.55715 on 45 procs for 50 steps with 1481544 atoms

Generated 0 of 0 mixed pair_coeff terms from geometric mixing rule
Last active /omp style is pair_style lj/cut/omp
Setting up Verlet run ...
  Unit style    : lj
  Current step  : 0
  Time step     : 0.005
Per MPI rank memory allocation (min/avg/max) = 2868 | 2868 | 2868 Mbytes
   Step        Atoms         Temp          PotEng         KinEng         TotEng         Press     
         0     1481544   1.0278162     -5.2572108      1.5417233     -3.7154875      2.6458829    
       500     1481544   1.0522908     -5.2867464      1.5784351     -3.7083114      2.8704075    
Loop time of 28.463 on 45 procs for 500 steps with 1481544 atoms

Performance: 7588.801 tau/day, 17.567 timesteps/s, 26.026 Matom-step/s
4477.8% CPU use with 1 MPI tasks x 45 OpenMP threads

MPI task timing breakdown:
Section |  min time  |  avg time  |  max time  |%varavg| %total
---------------------------------------------------------------
Pair    | 12.877     | 12.877     | 12.877     |   0.0 | 45.24
Neigh   | 5.0585     | 5.0585     | 5.0585     |   0.0 | 17.77
Comm    | 3.0936     | 3.0936     | 3.0936     |   0.0 | 10.87
Output  | 0.0038623  | 0.0038623  | 0.0038623  |   0.0 |  0.01
Modify  | 4.9514     | 4.9514     | 4.9514     |   0.0 | 17.40
Other   |            | 2.479      |            |       |  8.71

Nlocal:    1.48154e+06 ave 1.48154e+06 max 1.48154e+06 min
Histogram: 1 0 0 0 0 0 0 0 0 0
Nghost:         216026 ave      216026 max      216026 min
Histogram: 1 0 0 0 0 0 0 0 0 0
Neighs:    5.58746e+07 ave 5.58746e+07 max 5.58746e+07 min
Histogram: 1 0 0 0 0 0 0 0 0 0

Total # of neighbors = 55874636
Ave neighs/atom = 37.713788
Neighbor list builds = 85
Dangerous builds = 0
Total wall time: 0:00:35
