LAMMPS (22 Jul 2025 - Update 4)
  using 32 OpenMP thread(s) per MPI task
using multi-threaded neighbor list subroutines
Reading data file ...
  orthogonal box = (-53.962044 -53.962044 -53.962044) to (53.962044 53.962044 53.962044)
  1 by 1 by 1 MPI processor grid
  reading atoms ...
  1061208 atoms
  read_data CPU = 1.888 seconds
N        = 1061208
atoms    = 1061208
L        = 107.92408843915
spacing  = 1.05807929842304
rho      = 0.8442
dt       = 0.005
steps    = 200
Generated 0 of 0 mixed pair_coeff terms from geometric mixing rule
Last active /omp style is pair_style lj/cut/omp
Neighbor list info ...
  update: every = 1 steps, delay = 0 steps, check = yes
  max neighbors/atom: 2000, page size: 100000
  master list distance cutoff = 2.8
  ghost atom cutoff = 2.8
  binsize = 1.4, bins = 78 78 78
  1 neighbor lists, perpetual/occasional/extra = 1 0 0
  (1) pair lj/cut/omp, perpetual
      attributes: half, newton on, omp
      pair build: half/bin/atomonly/newton/omp
      stencil: half/bin/3d
      bin: standard
Setting up Verlet run ...
  Unit style    : lj
  Current step  : 0
  Time step     : 0.005
Per MPI rank memory allocation (min/avg/max) = 1579 | 1579 | 1579 Mbytes
   Step        Atoms         Temp          PotEng         KinEng         TotEng         Press     
         0     1061208   1             -5.2202185      1.4999986     -3.7202199      2.6664651    
Loop time of 1.663e-06 on 32 procs for 0 steps with 1061208 atoms

9500.9% CPU use with 1 MPI tasks x 32 OpenMP threads

MPI task timing breakdown:
Section |  min time  |  avg time  |  max time  |%varavg| %total
---------------------------------------------------------------
Pair    | 0          | 0          | 0          |   0.0 |  0.00
Neigh   | 0          | 0          | 0          |   0.0 |  0.00
Comm    | 0          | 0          | 0          |   0.0 |  0.00
Output  | 0          | 0          | 0          |   0.0 |  0.00
Modify  | 0          | 0          | 0          |   0.0 |  0.00
Other   |            | 1.663e-06  |            |       |100.00

Nlocal:    1.06121e+06 ave 1.06121e+06 max 1.06121e+06 min
Histogram: 1 0 0 0 0 0 0 0 0 0
Nghost:         198504 ave      198504 max      198504 min
Histogram: 1 0 0 0 0 0 0 0 0 0
Neighs:    4.24483e+07 ave 4.24483e+07 max 4.24483e+07 min
Histogram: 1 0 0 0 0 0 0 0 0 0

Total # of neighbors = 42448320
Ave neighs/atom = 40
Neighbor list builds = 0
Dangerous builds = 0
Generated 0 of 0 mixed pair_coeff terms from geometric mixing rule
Last active /omp style is pair_style lj/cut/omp
Setting up Verlet run ...
  Unit style    : lj
  Current step  : 0
  Time step     : 0.005
Per MPI rank memory allocation (min/avg/max) = 1579 | 1579 | 1579 Mbytes
   Step        Atoms         Temp          PotEng         KinEng         TotEng         Press     
         0     1061208   1             -5.2202185      1.4999986     -3.7202199      2.6664651    
        20     1061208   0.67516105    -4.7464978      1.0127406     -3.7337571      4.4944835    
Loop time of 0.659767 on 32 procs for 20 steps with 1061208 atoms

Generated 0 of 0 mixed pair_coeff terms from geometric mixing rule
Last active /omp style is pair_style lj/cut/omp
Setting up Verlet run ...
  Unit style    : lj
  Current step  : 0
  Time step     : 0.005
Per MPI rank memory allocation (min/avg/max) = 1579 | 1579 | 1579 Mbytes
   Step        Atoms         Temp          PotEng         KinEng         TotEng         Press     
         0     1061208   0.67516105    -4.7464978      1.0127406     -3.7337571      4.4944835    
       200     1061208   1.0515006     -5.2854919      1.5772494     -3.7082425      2.8733592    
Loop time of 8.39906 on 32 procs for 200 steps with 1061208 atoms

Performance: 10286.868 tau/day, 23.812 timesteps/s, 25.270 Matom-step/s
3184.1% CPU use with 1 MPI tasks x 32 OpenMP threads

MPI task timing breakdown:
Section |  min time  |  avg time  |  max time  |%varavg| %total
---------------------------------------------------------------
Pair    | 3.5729     | 3.5729     | 3.5729     |   0.0 | 42.54
Neigh   | 1.7113     | 1.7113     | 1.7113     |   0.0 | 20.38
Comm    | 0.91001    | 0.91001    | 0.91001    |   0.0 | 10.83
Output  | 0.0029917  | 0.0029917  | 0.0029917  |   0.0 |  0.04
Modify  | 1.4769     | 1.4769     | 1.4769     |   0.0 | 17.58
Other   |            | 0.725      |            |       |  8.63

Nlocal:    1.06121e+06 ave 1.06121e+06 max 1.06121e+06 min
Histogram: 1 0 0 0 0 0 0 0 0 0
Nghost:         174312 ave      174312 max      174312 min
Histogram: 1 0 0 0 0 0 0 0 0 0
Neighs:    4.00394e+07 ave 4.00394e+07 max 4.00394e+07 min
Histogram: 1 0 0 0 0 0 0 0 0 0

Total # of neighbors = 40039356
Ave neighs/atom = 37.729979
Neighbor list builds = 32
Dangerous builds = 0
Total wall time: 0:00:11
