LAMMPS (22 Jul 2025 - Update 4)
  using 1 OpenMP thread(s) per MPI task
using multi-threaded neighbor list subroutines
Reading data file ...
  orthogonal box = (-52.903965 -52.903965 -52.903965) to (52.903965 52.903965 52.903965)
  1 by 1 by 1 MPI processor grid
  reading atoms ...
  1000000 atoms
  read_data CPU = 1.710 seconds
N        = 1000000
atoms    = 1000000
L        = 105.807929842304
spacing  = 1.05807929842304
rho      = 0.8442
dt       = 0.005
steps    = 500
Generated 0 of 0 mixed pair_coeff terms from geometric mixing rule
Last active /omp style is pair_style lj/cut/omp
Neighbor list info ...
  update: every = 1 steps, delay = 0 steps, check = yes
  max neighbors/atom: 2000, page size: 100000
  master list distance cutoff = 2.8
  ghost atom cutoff = 2.8
  binsize = 1.4, bins = 76 76 76
  1 neighbor lists, perpetual/occasional/extra = 1 0 0
  (1) pair lj/cut/omp, perpetual
      attributes: half, newton on, omp
      pair build: half/bin/atomonly/newton/omp
      stencil: half/bin/3d
      bin: standard
Setting up Verlet run ...
  Unit style    : lj
  Current step  : 0
  Time step     : 0.005
Per MPI rank memory allocation (min/avg/max) = 359.9 | 359.9 | 359.9 Mbytes
   Step        Atoms         Temp          PotEng         KinEng         TotEng         Press     
         0     1000000   1             -5.2202185      1.4999985     -3.72022        2.6664651    
Loop time of 1.091e-06 on 1 procs for 0 steps with 1000000 atoms

275.0% CPU use with 1 MPI tasks x 1 OpenMP threads

MPI task timing breakdown:
Section |  min time  |  avg time  |  max time  |%varavg| %total
---------------------------------------------------------------
Pair    | 0          | 0          | 0          |   0.0 |  0.00
Neigh   | 0          | 0          | 0          |   0.0 |  0.00
Comm    | 0          | 0          | 0          |   0.0 |  0.00
Output  | 0          | 0          | 0          |   0.0 |  0.00
Modify  | 0          | 0          | 0          |   0.0 |  0.00
Other   |            | 1.091e-06  |            |       |100.00

Nlocal:          1e+06 ave       1e+06 max       1e+06 min
Histogram: 1 0 0 0 0 0 0 0 0 0
Nghost:         191016 ave      191016 max      191016 min
Histogram: 1 0 0 0 0 0 0 0 0 0
Neighs:          4e+07 ave       4e+07 max       4e+07 min
Histogram: 1 0 0 0 0 0 0 0 0 0

Total # of neighbors = 40000000
Ave neighs/atom = 40
Neighbor list builds = 0
Dangerous builds = 0
Generated 0 of 0 mixed pair_coeff terms from geometric mixing rule
Last active /omp style is pair_style lj/cut/omp
Setting up Verlet run ...
  Unit style    : lj
  Current step  : 0
  Time step     : 0.005
Per MPI rank memory allocation (min/avg/max) = 359.9 | 359.9 | 359.9 Mbytes
   Step        Atoms         Temp          PotEng         KinEng         TotEng         Press     
         0     1000000   1             -5.2202185      1.4999985     -3.72022        2.6664651    
        50     1000000   1.0283549     -5.2579723      1.5425308     -3.7154416      2.6425415    
Loop time of 17.6212 on 1 procs for 50 steps with 1000000 atoms

Generated 0 of 0 mixed pair_coeff terms from geometric mixing rule
Last active /omp style is pair_style lj/cut/omp
Setting up Verlet run ...
  Unit style    : lj
  Current step  : 0
  Time step     : 0.005
Per MPI rank memory allocation (min/avg/max) = 359.9 | 359.9 | 359.9 Mbytes
   Step        Atoms         Temp          PotEng         KinEng         TotEng         Press     
         0     1000000   1.0283549     -5.2579723      1.5425308     -3.7154416      2.6425415    
       500     1000000   1.0536629     -5.2888371      1.5804928     -3.7083443      2.8621269    
Loop time of 265.141 on 1 procs for 500 steps with 1000000 atoms

Performance: 814.661 tau/day, 1.886 timesteps/s, 1.886 Matom-step/s
100.0% CPU use with 1 MPI tasks x 1 OpenMP threads

MPI task timing breakdown:
Section |  min time  |  avg time  |  max time  |%varavg| %total
---------------------------------------------------------------
Pair    | 147.73     | 147.73     | 147.73     |   0.0 | 55.72
Neigh   | 109.65     | 109.65     | 109.65     |   0.0 | 41.35
Comm    | 1.8916     | 1.8916     | 1.8916     |   0.0 |  0.71
Output  | 0.0027328  | 0.0027328  | 0.0027328  |   0.0 |  0.00
Modify  | 4.0826     | 4.0826     | 4.0826     |   0.0 |  1.54
Other   |            | 1.788      |            |       |  0.67

Nlocal:          1e+06 ave       1e+06 max       1e+06 min
Histogram: 1 0 0 0 0 0 0 0 0 0
Nghost:         167487 ave      167487 max      167487 min
Histogram: 1 0 0 0 0 0 0 0 0 0
Neighs:     3.7711e+07 ave  3.7711e+07 max  3.7711e+07 min
Histogram: 1 0 0 0 0 0 0 0 0 0

Total # of neighbors = 37710977
Ave neighs/atom = 37.710977
Neighbor list builds = 84
Dangerous builds = 0
Total wall time: 0:04:48
