LAMMPS (22 Jul 2025 - Update 4)
  using 45 OpenMP thread(s) per MPI task
using multi-threaded neighbor list subroutines
Reading data file ...
  orthogonal box = (-60.31052 -60.31052 -60.31052) to (60.31052 60.31052 60.31052)
  1 by 1 by 1 MPI processor grid
  reading atoms ...
  1481544 atoms
  read_data CPU = 2.622 seconds
N        = 1481544
atoms    = 1481544
L        = 120.621040020226
spacing  = 1.05807929842304
rho      = 0.8442
dt       = 0.005
steps    = 200
Generated 0 of 0 mixed pair_coeff terms from geometric mixing rule
Last active /omp style is pair_style lj/cut/omp
Neighbor list info ...
  update: every = 1 steps, delay = 0 steps, check = yes
  max neighbors/atom: 2000, page size: 100000
  master list distance cutoff = 2.8
  ghost atom cutoff = 2.8
  binsize = 1.4, bins = 87 87 87
  1 neighbor lists, perpetual/occasional/extra = 1 0 0
  (1) pair lj/cut/omp, perpetual
      attributes: half, newton on, omp
      pair build: half/bin/atomonly/newton/omp
      stencil: half/bin/3d
      bin: standard
Setting up Verlet run ...
  Unit style    : lj
  Current step  : 0
  Time step     : 0.005
Per MPI rank memory allocation (min/avg/max) = 2868 | 2868 | 2868 Mbytes
   Step        Atoms         Temp          PotEng         KinEng         TotEng         Press     
         0     1481544   1             -5.2202185      1.499999      -3.7202195      2.6664653    
Loop time of 1.866e-06 on 45 procs for 0 steps with 1481544 atoms

17202.6% CPU use with 1 MPI tasks x 45 OpenMP threads

MPI task timing breakdown:
Section |  min time  |  avg time  |  max time  |%varavg| %total
---------------------------------------------------------------
Pair    | 0          | 0          | 0          |   0.0 |  0.00
Neigh   | 0          | 0          | 0          |   0.0 |  0.00
Comm    | 0          | 0          | 0          |   0.0 |  0.00
Output  | 0          | 0          | 0          |   0.0 |  0.00
Modify  | 0          | 0          | 0          |   0.0 |  0.00
Other   |            | 1.866e-06  |            |       |100.00

Nlocal:    1.48154e+06 ave 1.48154e+06 max 1.48154e+06 min
Histogram: 1 0 0 0 0 0 0 0 0 0
Nghost:         246456 ave      246456 max      246456 min
Histogram: 1 0 0 0 0 0 0 0 0 0
Neighs:    5.92618e+07 ave 5.92618e+07 max 5.92618e+07 min
Histogram: 1 0 0 0 0 0 0 0 0 0

Total # of neighbors = 59261760
Ave neighs/atom = 40
Neighbor list builds = 0
Dangerous builds = 0
Generated 0 of 0 mixed pair_coeff terms from geometric mixing rule
Last active /omp style is pair_style lj/cut/omp
Setting up Verlet run ...
  Unit style    : lj
  Current step  : 0
  Time step     : 0.005
Per MPI rank memory allocation (min/avg/max) = 2868 | 2868 | 2868 Mbytes
   Step        Atoms         Temp          PotEng         KinEng         TotEng         Press     
         0     1481544   1             -5.2202185      1.499999      -3.7202195      2.6664653    
        20     1481544   0.67474266    -4.7458731      1.0121133     -3.7337598      4.4972255    
Loop time of 0.941576 on 45 procs for 20 steps with 1481544 atoms

Generated 0 of 0 mixed pair_coeff terms from geometric mixing rule
Last active /omp style is pair_style lj/cut/omp
Setting up Verlet run ...
  Unit style    : lj
  Current step  : 0
  Time step     : 0.005
Per MPI rank memory allocation (min/avg/max) = 2868 | 2868 | 2868 Mbytes
   Step        Atoms         Temp          PotEng         KinEng         TotEng         Press     
         0     1481544   0.67474266    -4.7458731      1.0121133     -3.7337598      4.4972255    
       200     1481544   1.0505844     -5.2840866      1.5758755     -3.7082111      2.8770066    
Loop time of 11.2667 on 45 procs for 200 steps with 1481544 atoms

Performance: 7668.607 tau/day, 17.751 timesteps/s, 26.299 Matom-step/s
4477.7% CPU use with 1 MPI tasks x 45 OpenMP threads

MPI task timing breakdown:
Section |  min time  |  avg time  |  max time  |%varavg| %total
---------------------------------------------------------------
Pair    | 5.181      | 5.181      | 5.181      |   0.0 | 45.99
Neigh   | 1.8529     | 1.8529     | 1.8529     |   0.0 | 16.45
Comm    | 1.2188     | 1.2188     | 1.2188     |   0.0 | 10.82
Output  | 0.003832   | 0.003832   | 0.003832   |   0.0 |  0.03
Modify  | 1.9884     | 1.9884     | 1.9884     |   0.0 | 17.65
Other   |            | 1.022      |            |       |  9.07

Nlocal:    1.48154e+06 ave 1.48154e+06 max 1.48154e+06 min
Histogram: 1 0 0 0 0 0 0 0 0 0
Nghost:         216897 ave      216897 max      216897 min
Histogram: 1 0 0 0 0 0 0 0 0 0
Neighs:    5.58976e+07 ave 5.58976e+07 max 5.58976e+07 min
Histogram: 1 0 0 0 0 0 0 0 0 0

Total # of neighbors = 55897580
Ave neighs/atom = 37.729274
Neighbor list builds = 32
Dangerous builds = 0
Total wall time: 0:00:16
