LAMMPS (22 Jul 2025 - Update 4)
  using 56 OpenMP thread(s) per MPI task
using multi-threaded neighbor list subroutines
Reading data file ...
  orthogonal box = (-52.903965 -52.903965 -52.903965) to (52.903965 52.903965 52.903965)
  1 by 1 by 1 MPI processor grid
  reading atoms ...
  1000000 atoms
  read_data CPU = 1.816 seconds
N        = 1000000
atoms    = 1000000
L        = 105.807929842304
spacing  = 1.05807929842304
rho      = 0.8442
dt       = 0.0000001
steps    = 500
Generated 0 of 0 mixed pair_coeff terms from geometric mixing rule
Last active /omp style is pair_style lj/cut/omp
Neighbor list info ...
  update: every = 1 steps, delay = 0 steps, check = yes
  max neighbors/atom: 2000, page size: 100000
  master list distance cutoff = 2.8
  ghost atom cutoff = 2.8
  binsize = 1.4, bins = 76 76 76
  1 neighbor lists, perpetual/occasional/extra = 1 0 0
  (1) pair lj/cut/omp, perpetual
      attributes: half, newton on, omp
      pair build: half/bin/atomonly/newton/omp
      stencil: half/bin/3d
      bin: standard
Setting up Verlet run ...
  Unit style    : lj
  Current step  : 0
  Time step     : 1e-07
Per MPI rank memory allocation (min/avg/max) = 2382 | 2382 | 2382 Mbytes
   Step        Atoms         Temp          PotEng         KinEng         TotEng         Press     
         0     1000000   1             -5.2202185      1.4999985     -3.72022        2.6664651    
Loop time of 2.673e-06 on 56 procs for 0 steps with 1000000 atoms

17171.7% CPU use with 1 MPI tasks x 56 OpenMP threads

MPI task timing breakdown:
Section |  min time  |  avg time  |  max time  |%varavg| %total
---------------------------------------------------------------
Pair    | 0          | 0          | 0          |   0.0 |  0.00
Neigh   | 0          | 0          | 0          |   0.0 |  0.00
Comm    | 0          | 0          | 0          |   0.0 |  0.00
Output  | 0          | 0          | 0          |   0.0 |  0.00
Modify  | 0          | 0          | 0          |   0.0 |  0.00
Other   |            | 2.673e-06  |            |       |100.00

Nlocal:          1e+06 ave       1e+06 max       1e+06 min
Histogram: 1 0 0 0 0 0 0 0 0 0
Nghost:         191016 ave      191016 max      191016 min
Histogram: 1 0 0 0 0 0 0 0 0 0
Neighs:          4e+07 ave       4e+07 max       4e+07 min
Histogram: 1 0 0 0 0 0 0 0 0 0

Total # of neighbors = 40000000
Ave neighs/atom = 40
Neighbor list builds = 0
Dangerous builds = 0
Generated 0 of 0 mixed pair_coeff terms from geometric mixing rule
Last active /omp style is pair_style lj/cut/omp
Setting up Verlet run ...
  Unit style    : lj
  Current step  : 0
  Time step     : 1e-07
Per MPI rank memory allocation (min/avg/max) = 2382 | 2382 | 2382 Mbytes
   Step        Atoms         Temp          PotEng         KinEng         TotEng         Press     
         0     1000000   1             -5.2202185      1.4999985     -3.72022        2.6664651    
        50     1000000   0.99999999    -5.2202185      1.4999985     -3.72022        2.6664651    
Loop time of 1.70235 on 56 procs for 50 steps with 1000000 atoms

Generated 0 of 0 mixed pair_coeff terms from geometric mixing rule
Last active /omp style is pair_style lj/cut/omp
Setting up Verlet run ...
  Unit style    : lj
  Current step  : 0
  Time step     : 1e-07
Per MPI rank memory allocation (min/avg/max) = 2382 | 2382 | 2382 Mbytes
   Step        Atoms         Temp          PotEng         KinEng         TotEng         Press     
         0     1000000   0.99999999    -5.2202185      1.4999985     -3.72022        2.6664651    
       500     1000000   0.99999906    -5.2202171      1.4999971     -3.72022        2.6664704    
Loop time of 16.9499 on 56 procs for 500 steps with 1000000 atoms

Performance: 0.255 tau/day, 29.499 timesteps/s, 29.499 Matom-step/s
5565.3% CPU use with 1 MPI tasks x 56 OpenMP threads

MPI task timing breakdown:
Section |  min time  |  avg time  |  max time  |%varavg| %total
---------------------------------------------------------------
Pair    | 8.6733     | 8.6733     | 8.6733     |   0.0 | 51.17
Neigh   | 0          | 0          | 0          |   0.0 |  0.00
Comm    | 1.3335     | 1.3335     | 1.3335     |   0.0 |  7.87
Output  | 0.0034749  | 0.0034749  | 0.0034749  |   0.0 |  0.02
Modify  | 4.4433     | 4.4433     | 4.4433     |   0.0 | 26.21
Other   |            | 2.496      |            |       | 14.73

Nlocal:          1e+06 ave       1e+06 max       1e+06 min
Histogram: 1 0 0 0 0 0 0 0 0 0
Nghost:         191016 ave      191016 max      191016 min
Histogram: 1 0 0 0 0 0 0 0 0 0
Neighs:          4e+07 ave       4e+07 max       4e+07 min
Histogram: 1 0 0 0 0 0 0 0 0 0

Total # of neighbors = 40000000
Ave neighs/atom = 40
Neighbor list builds = 0
Dangerous builds = 0
Total wall time: 0:00:21
