LAMMPS (22 Jul 2025 - Update 4)
  using 56 OpenMP thread(s) per MPI task
using multi-threaded neighbor list subroutines
Reading data file ...
  orthogonal box = (-84.646344 -84.646344 -84.646344) to (84.646344 84.646344 84.646344)
  1 by 1 by 1 MPI processor grid
  reading atoms ...
  4096000 atoms
  read_data CPU = 7.337 seconds
N        = 4096000
atoms    = 4096000
L        = 169.292687747686
spacing  = 1.05807929842304
rho      = 0.8442
dt       = 0.005
steps    = 200
Generated 0 of 0 mixed pair_coeff terms from geometric mixing rule
Last active /omp style is pair_style lj/cut/omp
Neighbor list info ...
  update: every = 1 steps, delay = 0 steps, check = yes
  max neighbors/atom: 2000, page size: 100000
  master list distance cutoff = 2.8
  ghost atom cutoff = 2.8
  binsize = 1.4, bins = 121 121 121
  1 neighbor lists, perpetual/occasional/extra = 1 0 0
  (1) pair lj/cut/omp, perpetual
      attributes: half, newton on, omp
      pair build: half/bin/atomonly/newton/omp
      stencil: half/bin/3d
      bin: standard
Setting up Verlet run ...
  Unit style    : lj
  Current step  : 0
  Time step     : 0.005
Per MPI rank memory allocation (min/avg/max) = 9120 | 9120 | 9120 Mbytes
   Step        Atoms         Temp          PotEng         KinEng         TotEng         Press     
         0     4096000   1             -5.2202185      1.4999996     -3.7202189      2.6664657    
Loop time of 2.414e-06 on 56 procs for 0 steps with 4096000 atoms

21375.3% CPU use with 1 MPI tasks x 56 OpenMP threads

MPI task timing breakdown:
Section |  min time  |  avg time  |  max time  |%varavg| %total
---------------------------------------------------------------
Pair    | 0          | 0          | 0          |   0.0 |  0.00
Neigh   | 0          | 0          | 0          |   0.0 |  0.00
Comm    | 0          | 0          | 0          |   0.0 |  0.00
Output  | 0          | 0          | 0          |   0.0 |  0.00
Modify  | 0          | 0          | 0          |   0.0 |  0.00
Other   |            | 2.414e-06  |            |       |100.00

Nlocal:      4.096e+06 ave   4.096e+06 max   4.096e+06 min
Histogram: 1 0 0 0 0 0 0 0 0 0
Nghost:         478296 ave      478296 max      478296 min
Histogram: 1 0 0 0 0 0 0 0 0 0
Neighs:     1.6384e+08 ave  1.6384e+08 max  1.6384e+08 min
Histogram: 1 0 0 0 0 0 0 0 0 0

Total # of neighbors = 1.6384e+08
Ave neighs/atom = 40
Neighbor list builds = 0
Dangerous builds = 0
Generated 0 of 0 mixed pair_coeff terms from geometric mixing rule
Last active /omp style is pair_style lj/cut/omp
Setting up Verlet run ...
  Unit style    : lj
  Current step  : 0
  Time step     : 0.005
Per MPI rank memory allocation (min/avg/max) = 9120 | 9120 | 9120 Mbytes
   Step        Atoms         Temp          PotEng         KinEng         TotEng         Press     
         0     4096000   1             -5.2202185      1.4999996     -3.7202189      2.6664657    
        20     4096000   0.67480824    -4.7459678      1.0122121     -3.7337557      4.4965311    
Loop time of 2.77372 on 56 procs for 20 steps with 4096000 atoms

Generated 0 of 0 mixed pair_coeff terms from geometric mixing rule
Last active /omp style is pair_style lj/cut/omp
Setting up Verlet run ...
  Unit style    : lj
  Current step  : 0
  Time step     : 0.005
Per MPI rank memory allocation (min/avg/max) = 9120 | 9120 | 9120 Mbytes
   Step        Atoms         Temp          PotEng         KinEng         TotEng         Press     
         0     4096000   0.67480824    -4.7459678      1.0122121     -3.7337557      4.4965311    
       200     4096000   1.0507049     -5.2842935      1.576057      -3.7082365      2.8771892    
Loop time of 33.6724 on 56 procs for 200 steps with 4096000 atoms

Performance: 2565.901 tau/day, 5.940 timesteps/s, 24.329 Matom-step/s
5571.8% CPU use with 1 MPI tasks x 56 OpenMP threads

MPI task timing breakdown:
Section |  min time  |  avg time  |  max time  |%varavg| %total
---------------------------------------------------------------
Pair    | 15.206     | 15.206     | 15.206     |   0.0 | 45.16
Neigh   | 4.5983     | 4.5983     | 4.5983     |   0.0 | 13.66
Comm    | 3.8323     | 3.8323     | 3.8323     |   0.0 | 11.38
Output  | 0.01156    | 0.01156    | 0.01156    |   0.0 |  0.03
Modify  | 6.9806     | 6.9806     | 6.9806     |   0.0 | 20.73
Other   |            | 3.044      |            |       |  9.04

Nlocal:      4.096e+06 ave   4.096e+06 max   4.096e+06 min
Histogram: 1 0 0 0 0 0 0 0 0 0
Nghost:         421195 ave      421195 max      421195 min
Histogram: 1 0 0 0 0 0 0 0 0 0
Neighs:    1.54546e+08 ave 1.54546e+08 max 1.54546e+08 min
Histogram: 1 0 0 0 0 0 0 0 0 0

Total # of neighbors = 1.5454584e+08
Ave neighs/atom = 37.730919
Neighbor list builds = 33
Dangerous builds = 0
Total wall time: 0:00:52
