LAMMPS (22 Jul 2025 - Update 4)
  using 45 OpenMP thread(s) per MPI task
using multi-threaded neighbor list subroutines
Reading data file ...
  orthogonal box = (-60.31052 -60.31052 -60.31052) to (60.31052 60.31052 60.31052)
  1 by 1 by 1 MPI processor grid
  reading atoms ...
  1481544 atoms
  read_data CPU = 2.619 seconds
N        = 1481544
atoms    = 1481544
L        = 120.621040020226
spacing  = 1.05807929842304
rho      = 0.8442
dt       = 0.0000001
steps    = 500
Generated 0 of 0 mixed pair_coeff terms from geometric mixing rule
Last active /omp style is pair_style lj/cut/omp
Neighbor list info ...
  update: every = 1 steps, delay = 0 steps, check = yes
  max neighbors/atom: 2000, page size: 100000
  master list distance cutoff = 2.8
  ghost atom cutoff = 2.8
  binsize = 1.4, bins = 87 87 87
  1 neighbor lists, perpetual/occasional/extra = 1 0 0
  (1) pair lj/cut/omp, perpetual
      attributes: half, newton on, omp
      pair build: half/bin/atomonly/newton/omp
      stencil: half/bin/3d
      bin: standard
Setting up Verlet run ...
  Unit style    : lj
  Current step  : 0
  Time step     : 1e-07
Per MPI rank memory allocation (min/avg/max) = 2868 | 2868 | 2868 Mbytes
   Step        Atoms         Temp          PotEng         KinEng         TotEng         Press     
         0     1481544   1             -5.2202185      1.499999      -3.7202195      2.6664653    
Loop time of 1.75e-06 on 45 procs for 0 steps with 1481544 atoms

17314.3% CPU use with 1 MPI tasks x 45 OpenMP threads

MPI task timing breakdown:
Section |  min time  |  avg time  |  max time  |%varavg| %total
---------------------------------------------------------------
Pair    | 0          | 0          | 0          |   0.0 |  0.00
Neigh   | 0          | 0          | 0          |   0.0 |  0.00
Comm    | 0          | 0          | 0          |   0.0 |  0.00
Output  | 0          | 0          | 0          |   0.0 |  0.00
Modify  | 0          | 0          | 0          |   0.0 |  0.00
Other   |            | 1.75e-06   |            |       |100.00

Nlocal:    1.48154e+06 ave 1.48154e+06 max 1.48154e+06 min
Histogram: 1 0 0 0 0 0 0 0 0 0
Nghost:         246456 ave      246456 max      246456 min
Histogram: 1 0 0 0 0 0 0 0 0 0
Neighs:    5.92618e+07 ave 5.92618e+07 max 5.92618e+07 min
Histogram: 1 0 0 0 0 0 0 0 0 0

Total # of neighbors = 59261760
Ave neighs/atom = 40
Neighbor list builds = 0
Dangerous builds = 0
Generated 0 of 0 mixed pair_coeff terms from geometric mixing rule
Last active /omp style is pair_style lj/cut/omp
Setting up Verlet run ...
  Unit style    : lj
  Current step  : 0
  Time step     : 1e-07
Per MPI rank memory allocation (min/avg/max) = 2868 | 2868 | 2868 Mbytes
   Step        Atoms         Temp          PotEng         KinEng         TotEng         Press     
         0     1481544   1             -5.2202185      1.499999      -3.7202195      2.6664653    
        50     1481544   0.99999999    -5.2202185      1.499999      -3.7202195      2.6664654    
Loop time of 1.98739 on 45 procs for 50 steps with 1481544 atoms

Generated 0 of 0 mixed pair_coeff terms from geometric mixing rule
Last active /omp style is pair_style lj/cut/omp
Setting up Verlet run ...
  Unit style    : lj
  Current step  : 0
  Time step     : 1e-07
Per MPI rank memory allocation (min/avg/max) = 2868 | 2868 | 2868 Mbytes
   Step        Atoms         Temp          PotEng         KinEng         TotEng         Press     
         0     1481544   0.99999999    -5.2202185      1.499999      -3.7202195      2.6664654    
       500     1481544   0.99999906    -5.2202171      1.4999976     -3.7202195      2.6664707    
Loop time of 19.5076 on 45 procs for 500 steps with 1481544 atoms

Performance: 0.221 tau/day, 25.631 timesteps/s, 37.973 Matom-step/s
4476.7% CPU use with 1 MPI tasks x 45 OpenMP threads

MPI task timing breakdown:
Section |  min time  |  avg time  |  max time  |%varavg| %total
---------------------------------------------------------------
Pair    | 10.041     | 10.041     | 10.041     |   0.0 | 51.47
Neigh   | 0          | 0          | 0          |   0.0 |  0.00
Comm    | 1.5114     | 1.5114     | 1.5114     |   0.0 |  7.75
Output  | 0.0043061  | 0.0043061  | 0.0043061  |   0.0 |  0.02
Modify  | 4.9872     | 4.9872     | 4.9872     |   0.0 | 25.57
Other   |            | 2.964      |            |       | 15.19

Nlocal:    1.48154e+06 ave 1.48154e+06 max 1.48154e+06 min
Histogram: 1 0 0 0 0 0 0 0 0 0
Nghost:         246456 ave      246456 max      246456 min
Histogram: 1 0 0 0 0 0 0 0 0 0
Neighs:    5.92618e+07 ave 5.92618e+07 max 5.92618e+07 min
Histogram: 1 0 0 0 0 0 0 0 0 0

Total # of neighbors = 59261760
Ave neighs/atom = 40
Neighbor list builds = 0
Dangerous builds = 0
Total wall time: 0:00:25
