LAMMPS (22 Jul 2025 - Update 4)
  using 37 OpenMP thread(s) per MPI task
using multi-threaded neighbor list subroutines
Reading data file ...
  orthogonal box = (-56.607242 -56.607242 -56.607242) to (56.607242 56.607242 56.607242)
  1 by 1 by 1 MPI processor grid
  reading atoms ...
  1225043 atoms
  read_data CPU = 2.193 seconds
N        = 1225043
atoms    = 1225043
L        = 113.214484931265
spacing  = 1.05807929842304
rho      = 0.8442
dt       = 0.0000001
steps    = 500
Generated 0 of 0 mixed pair_coeff terms from geometric mixing rule
Last active /omp style is pair_style lj/cut/omp
Neighbor list info ...
  update: every = 1 steps, delay = 0 steps, check = yes
  max neighbors/atom: 2000, page size: 100000
  master list distance cutoff = 2.8
  ghost atom cutoff = 2.8
  binsize = 1.4, bins = 81 81 81
  1 neighbor lists, perpetual/occasional/extra = 1 0 0
  (1) pair lj/cut/omp, perpetual
      attributes: half, newton on, omp
      pair build: half/bin/atomonly/newton/omp
      stencil: half/bin/3d
      bin: standard
Setting up Verlet run ...
  Unit style    : lj
  Current step  : 0
  Time step     : 1e-07
Per MPI rank memory allocation (min/avg/max) = 2047 | 2047 | 2047 Mbytes
   Step        Atoms         Temp          PotEng         KinEng         TotEng         Press     
         0     1225043   1             -5.2202185      1.4999988     -3.7202197      2.6664652    
Loop time of 1.964e-06 on 37 procs for 0 steps with 1225043 atoms

13849.3% CPU use with 1 MPI tasks x 37 OpenMP threads

MPI task timing breakdown:
Section |  min time  |  avg time  |  max time  |%varavg| %total
---------------------------------------------------------------
Pair    | 0          | 0          | 0          |   0.0 |  0.00
Neigh   | 0          | 0          | 0          |   0.0 |  0.00
Comm    | 0          | 0          | 0          |   0.0 |  0.00
Output  | 0          | 0          | 0          |   0.0 |  0.00
Modify  | 0          | 0          | 0          |   0.0 |  0.00
Other   |            | 1.964e-06  |            |       |100.00

Nlocal:    1.22504e+06 ave 1.22504e+06 max 1.22504e+06 min
Histogram: 1 0 0 0 0 0 0 0 0 0
Nghost:         217854 ave      217854 max      217854 min
Histogram: 1 0 0 0 0 0 0 0 0 0
Neighs:    4.90017e+07 ave 4.90017e+07 max 4.90017e+07 min
Histogram: 1 0 0 0 0 0 0 0 0 0

Total # of neighbors = 49001720
Ave neighs/atom = 40
Neighbor list builds = 0
Dangerous builds = 0
Generated 0 of 0 mixed pair_coeff terms from geometric mixing rule
Last active /omp style is pair_style lj/cut/omp
Setting up Verlet run ...
  Unit style    : lj
  Current step  : 0
  Time step     : 1e-07
Per MPI rank memory allocation (min/avg/max) = 2047 | 2047 | 2047 Mbytes
   Step        Atoms         Temp          PotEng         KinEng         TotEng         Press     
         0     1225043   1             -5.2202185      1.4999988     -3.7202197      2.6664652    
        50     1225043   0.99999999    -5.2202185      1.4999988     -3.7202197      2.6664653    
Loop time of 1.54937 on 37 procs for 50 steps with 1225043 atoms

Generated 0 of 0 mixed pair_coeff terms from geometric mixing rule
Last active /omp style is pair_style lj/cut/omp
Setting up Verlet run ...
  Unit style    : lj
  Current step  : 0
  Time step     : 1e-07
Per MPI rank memory allocation (min/avg/max) = 2047 | 2047 | 2047 Mbytes
   Step        Atoms         Temp          PotEng         KinEng         TotEng         Press     
         0     1225043   0.99999999    -5.2202185      1.4999988     -3.7202197      2.6664653    
       500     1225043   0.99999906    -5.2202171      1.4999974     -3.7202197      2.6664706    
Loop time of 17.0058 on 37 procs for 500 steps with 1225043 atoms

Performance: 0.254 tau/day, 29.402 timesteps/s, 36.018 Matom-step/s
3672.6% CPU use with 1 MPI tasks x 37 OpenMP threads

MPI task timing breakdown:
Section |  min time  |  avg time  |  max time  |%varavg| %total
---------------------------------------------------------------
Pair    | 9.2133     | 9.2133     | 9.2133     |   0.0 | 54.18
Neigh   | 0          | 0          | 0          |   0.0 |  0.00
Comm    | 1.2957     | 1.2957     | 1.2957     |   0.0 |  7.62
Output  | 0.0033381  | 0.0033381  | 0.0033381  |   0.0 |  0.02
Modify  | 4.0946     | 4.0946     | 4.0946     |   0.0 | 24.08
Other   |            | 2.399      |            |       | 14.11

Nlocal:    1.22504e+06 ave 1.22504e+06 max 1.22504e+06 min
Histogram: 1 0 0 0 0 0 0 0 0 0
Nghost:         217854 ave      217854 max      217854 min
Histogram: 1 0 0 0 0 0 0 0 0 0
Neighs:    4.90017e+07 ave 4.90017e+07 max 4.90017e+07 min
Histogram: 1 0 0 0 0 0 0 0 0 0

Total # of neighbors = 49001720
Ave neighs/atom = 40
Neighbor list builds = 0
Dangerous builds = 0
Total wall time: 0:00:21
