LAMMPS (22 Jul 2025 - Update 4)
  using 50 OpenMP thread(s) per MPI task
using multi-threaded neighbor list subroutines
Reading data file ...
  orthogonal box = (-62.426679 -62.426679 -62.426679) to (62.426679 62.426679 62.426679)
  1 by 1 by 1 MPI processor grid
  reading atoms ...
  1643032 atoms
  read_data CPU = 2.987 seconds
N        = 1643032
atoms    = 1643032
L        = 124.853357213919
spacing  = 1.05807929842304
rho      = 0.8442
dt       = 0.0000001
steps    = 500
Generated 0 of 0 mixed pair_coeff terms from geometric mixing rule
Last active /omp style is pair_style lj/cut/omp
Neighbor list info ...
  update: every = 1 steps, delay = 0 steps, check = yes
  max neighbors/atom: 2000, page size: 100000
  master list distance cutoff = 2.8
  ghost atom cutoff = 2.8
  binsize = 1.4, bins = 90 90 90
  1 neighbor lists, perpetual/occasional/extra = 1 0 0
  (1) pair lj/cut/omp, perpetual
      attributes: half, newton on, omp
      pair build: half/bin/atomonly/newton/omp
      stencil: half/bin/3d
      bin: standard
Setting up Verlet run ...
  Unit style    : lj
  Current step  : 0
  Time step     : 1e-07
Per MPI rank memory allocation (min/avg/max) = 3460 | 3460 | 3460 Mbytes
   Step        Atoms         Temp          PotEng         KinEng         TotEng         Press     
         0     1643032   1             -5.2202185      1.4999991     -3.7202194      2.6664654    
Loop time of 2.123e-06 on 50 procs for 0 steps with 1643032 atoms

15968.0% CPU use with 1 MPI tasks x 50 OpenMP threads

MPI task timing breakdown:
Section |  min time  |  avg time  |  max time  |%varavg| %total
---------------------------------------------------------------
Pair    | 0          | 0          | 0          |   0.0 |  0.00
Neigh   | 0          | 0          | 0          |   0.0 |  0.00
Comm    | 0          | 0          | 0          |   0.0 |  0.00
Output  | 0          | 0          | 0          |   0.0 |  0.00
Modify  | 0          | 0          | 0          |   0.0 |  0.00
Other   |            | 2.123e-06  |            |       |100.00

Nlocal:    1.64303e+06 ave 1.64303e+06 max 1.64303e+06 min
Histogram: 1 0 0 0 0 0 0 0 0 0
Nghost:         263592 ave      263592 max      263592 min
Histogram: 1 0 0 0 0 0 0 0 0 0
Neighs:    6.57213e+07 ave 6.57213e+07 max 6.57213e+07 min
Histogram: 1 0 0 0 0 0 0 0 0 0

Total # of neighbors = 65721280
Ave neighs/atom = 40
Neighbor list builds = 0
Dangerous builds = 0
Generated 0 of 0 mixed pair_coeff terms from geometric mixing rule
Last active /omp style is pair_style lj/cut/omp
Setting up Verlet run ...
  Unit style    : lj
  Current step  : 0
  Time step     : 1e-07
Per MPI rank memory allocation (min/avg/max) = 3460 | 3460 | 3460 Mbytes
   Step        Atoms         Temp          PotEng         KinEng         TotEng         Press     
         0     1643032   1             -5.2202185      1.4999991     -3.7202194      2.6664654    
        50     1643032   0.99999999    -5.2202185      1.4999991     -3.7202194      2.6664654    
Loop time of 2.34919 on 50 procs for 50 steps with 1643032 atoms

Generated 0 of 0 mixed pair_coeff terms from geometric mixing rule
Last active /omp style is pair_style lj/cut/omp
Setting up Verlet run ...
  Unit style    : lj
  Current step  : 0
  Time step     : 1e-07
Per MPI rank memory allocation (min/avg/max) = 3460 | 3460 | 3460 Mbytes
   Step        Atoms         Temp          PotEng         KinEng         TotEng         Press     
         0     1643032   0.99999999    -5.2202185      1.4999991     -3.7202194      2.6664654    
       500     1643032   0.99999906    -5.2202171      1.4999977     -3.7202194      2.6664707    
Loop time of 23.1133 on 50 procs for 500 steps with 1643032 atoms

Performance: 0.187 tau/day, 21.633 timesteps/s, 35.543 Matom-step/s
4973.3% CPU use with 1 MPI tasks x 50 OpenMP threads

MPI task timing breakdown:
Section |  min time  |  avg time  |  max time  |%varavg| %total
---------------------------------------------------------------
Pair    | 12.075     | 12.075     | 12.075     |   0.0 | 52.24
Neigh   | 0          | 0          | 0          |   0.0 |  0.00
Comm    | 1.6503     | 1.6503     | 1.6503     |   0.0 |  7.14
Output  | 0.0044476  | 0.0044476  | 0.0044476  |   0.0 |  0.02
Modify  | 6.0594     | 6.0594     | 6.0594     |   0.0 | 26.22
Other   |            | 3.324      |            |       | 14.38

Nlocal:    1.64303e+06 ave 1.64303e+06 max 1.64303e+06 min
Histogram: 1 0 0 0 0 0 0 0 0 0
Nghost:         263592 ave      263592 max      263592 min
Histogram: 1 0 0 0 0 0 0 0 0 0
Neighs:    6.57213e+07 ave 6.57213e+07 max 6.57213e+07 min
Histogram: 1 0 0 0 0 0 0 0 0 0

Total # of neighbors = 65721280
Ave neighs/atom = 40
Neighbor list builds = 0
Dangerous builds = 0
Total wall time: 0:00:30
