LAMMPS (22 Jul 2025 - Update 4)
  using 8 OpenMP thread(s) per MPI task
using multi-threaded neighbor list subroutines
Reading data file ...
  orthogonal box = (-33.858538 -33.858538 -33.858538) to (33.858538 33.858538 33.858538)
  1 by 1 by 1 MPI processor grid
  reading atoms ...
  262144 atoms
  read_data CPU = 0.460 seconds
N        = 262144
atoms    = 262144
L        = 67.7170750990745
spacing  = 1.05807929842304
rho      = 0.8442
dt       = 0.005
steps    = 500
Generated 0 of 0 mixed pair_coeff terms from geometric mixing rule
Last active /omp style is pair_style lj/cut/omp
Neighbor list info ...
  update: every = 1 steps, delay = 0 steps, check = yes
  max neighbors/atom: 2000, page size: 100000
  master list distance cutoff = 2.8
  ghost atom cutoff = 2.8
  binsize = 1.4, bins = 49 49 49
  1 neighbor lists, perpetual/occasional/extra = 1 0 0
  (1) pair lj/cut/omp, perpetual
      attributes: half, newton on, omp
      pair build: half/bin/atomonly/newton/omp
      stencil: half/bin/3d
      bin: standard
Setting up Verlet run ...
  Unit style    : lj
  Current step  : 0
  Time step     : 0.005
Per MPI rank memory allocation (min/avg/max) = 175 | 175 | 175 Mbytes
   Step        Atoms         Temp          PotEng         KinEng         TotEng         Press     
         0      262144   1             -5.2202185      1.4999943     -3.7202242      2.6664627    
Loop time of 9.01e-07 on 8 procs for 0 steps with 262144 atoms

1664.8% CPU use with 1 MPI tasks x 8 OpenMP threads

MPI task timing breakdown:
Section |  min time  |  avg time  |  max time  |%varavg| %total
---------------------------------------------------------------
Pair    | 0          | 0          | 0          |   0.0 |  0.00
Neigh   | 0          | 0          | 0          |   0.0 |  0.00
Comm    | 0          | 0          | 0          |   0.0 |  0.00
Output  | 0          | 0          | 0          |   0.0 |  0.00
Modify  | 0          | 0          | 0          |   0.0 |  0.00
Other   |            | 9.01e-07   |            |       |100.00

Nlocal:         262144 ave      262144 max      262144 min
Histogram: 1 0 0 0 0 0 0 0 0 0
Nghost:          80856 ave       80856 max       80856 min
Histogram: 1 0 0 0 0 0 0 0 0 0
Neighs:    1.04858e+07 ave 1.04858e+07 max 1.04858e+07 min
Histogram: 1 0 0 0 0 0 0 0 0 0

Total # of neighbors = 10485760
Ave neighs/atom = 40
Neighbor list builds = 0
Dangerous builds = 0
Generated 0 of 0 mixed pair_coeff terms from geometric mixing rule
Last active /omp style is pair_style lj/cut/omp
Setting up Verlet run ...
  Unit style    : lj
  Current step  : 0
  Time step     : 0.005
Per MPI rank memory allocation (min/avg/max) = 175 | 175 | 175 Mbytes
   Step        Atoms         Temp          PotEng         KinEng         TotEng         Press     
         0      262144   1             -5.2202185      1.4999943     -3.7202242      2.6664627    
        50      262144   1.0279018     -5.2572406      1.5418468     -3.7153938      2.6478554    
Loop time of 0.713442 on 8 procs for 50 steps with 262144 atoms

Generated 0 of 0 mixed pair_coeff terms from geometric mixing rule
Last active /omp style is pair_style lj/cut/omp
Setting up Verlet run ...
  Unit style    : lj
  Current step  : 0
  Time step     : 0.005
Per MPI rank memory allocation (min/avg/max) = 175 | 175 | 175 Mbytes
   Step        Atoms         Temp          PotEng         KinEng         TotEng         Press     
         0      262144   1.0279018     -5.2572406      1.5418468     -3.7153938      2.6478554    
       500      262144   1.0509497     -5.2846942      1.5764185     -3.7082757      2.8792184    
Loop time of 10.2276 on 8 procs for 500 steps with 262144 atoms

Performance: 21119.399 tau/day, 48.887 timesteps/s, 12.816 Matom-step/s
797.8% CPU use with 1 MPI tasks x 8 OpenMP threads

MPI task timing breakdown:
Section |  min time  |  avg time  |  max time  |%varavg| %total
---------------------------------------------------------------
Pair    | 5.0468     | 5.0468     | 5.0468     |   0.0 | 49.35
Neigh   | 3.8906     | 3.8906     | 3.8906     |   0.0 | 38.04
Comm    | 0.61312    | 0.61312    | 0.61312    |   0.0 |  5.99
Output  | 0.0010236  | 0.0010236  | 0.0010236  |   0.0 |  0.01
Modify  | 0.2693     | 0.2693     | 0.2693     |   0.0 |  2.63
Other   |            | 0.4067     |            |       |  3.98

Nlocal:         262144 ave      262144 max      262144 min
Histogram: 1 0 0 0 0 0 0 0 0 0
Nghost:          70509 ave       70509 max       70509 min
Histogram: 1 0 0 0 0 0 0 0 0 0
Neighs:    9.88695e+06 ave 9.88695e+06 max 9.88695e+06 min
Histogram: 1 0 0 0 0 0 0 0 0 0

Total # of neighbors = 9886951
Ave neighs/atom = 37.715725
Neighbor list builds = 83
Dangerous builds = 0
Total wall time: 0:00:11
