LAMMPS (22 Jul 2025 - Update 4)
  using 37 OpenMP thread(s) per MPI task
using multi-threaded neighbor list subroutines
Reading data file ...
  orthogonal box = (-56.607242 -56.607242 -56.607242) to (56.607242 56.607242 56.607242)
  1 by 1 by 1 MPI processor grid
  reading atoms ...
  1225043 atoms
  read_data CPU = 2.160 seconds
N        = 1225043
atoms    = 1225043
L        = 113.214484931265
spacing  = 1.05807929842304
rho      = 0.8442
dt       = 0.005
steps    = 200
Generated 0 of 0 mixed pair_coeff terms from geometric mixing rule
Last active /omp style is pair_style lj/cut/omp
Neighbor list info ...
  update: every = 1 steps, delay = 0 steps, check = yes
  max neighbors/atom: 2000, page size: 100000
  master list distance cutoff = 2.8
  ghost atom cutoff = 2.8
  binsize = 1.4, bins = 81 81 81
  1 neighbor lists, perpetual/occasional/extra = 1 0 0
  (1) pair lj/cut/omp, perpetual
      attributes: half, newton on, omp
      pair build: half/bin/atomonly/newton/omp
      stencil: half/bin/3d
      bin: standard
Setting up Verlet run ...
  Unit style    : lj
  Current step  : 0
  Time step     : 0.005
Per MPI rank memory allocation (min/avg/max) = 2047 | 2047 | 2047 Mbytes
   Step        Atoms         Temp          PotEng         KinEng         TotEng         Press     
         0     1225043   1             -5.2202185      1.4999988     -3.7202197      2.6664652    
Loop time of 1.967e-06 on 37 procs for 0 steps with 1225043 atoms

14082.4% CPU use with 1 MPI tasks x 37 OpenMP threads

MPI task timing breakdown:
Section |  min time  |  avg time  |  max time  |%varavg| %total
---------------------------------------------------------------
Pair    | 0          | 0          | 0          |   0.0 |  0.00
Neigh   | 0          | 0          | 0          |   0.0 |  0.00
Comm    | 0          | 0          | 0          |   0.0 |  0.00
Output  | 0          | 0          | 0          |   0.0 |  0.00
Modify  | 0          | 0          | 0          |   0.0 |  0.00
Other   |            | 1.967e-06  |            |       |100.00

Nlocal:    1.22504e+06 ave 1.22504e+06 max 1.22504e+06 min
Histogram: 1 0 0 0 0 0 0 0 0 0
Nghost:         217854 ave      217854 max      217854 min
Histogram: 1 0 0 0 0 0 0 0 0 0
Neighs:    4.90017e+07 ave 4.90017e+07 max 4.90017e+07 min
Histogram: 1 0 0 0 0 0 0 0 0 0

Total # of neighbors = 49001720
Ave neighs/atom = 40
Neighbor list builds = 0
Dangerous builds = 0
Generated 0 of 0 mixed pair_coeff terms from geometric mixing rule
Last active /omp style is pair_style lj/cut/omp
Setting up Verlet run ...
  Unit style    : lj
  Current step  : 0
  Time step     : 0.005
Per MPI rank memory allocation (min/avg/max) = 2047 | 2047 | 2047 Mbytes
   Step        Atoms         Temp          PotEng         KinEng         TotEng         Press     
         0     1225043   1             -5.2202185      1.4999988     -3.7202197      2.6664652    
        20     1225043   0.67499444    -4.7462381      1.0124908     -3.7337472      4.4953528    
Loop time of 0.7615 on 37 procs for 20 steps with 1225043 atoms

Generated 0 of 0 mixed pair_coeff terms from geometric mixing rule
Last active /omp style is pair_style lj/cut/omp
Setting up Verlet run ...
  Unit style    : lj
  Current step  : 0
  Time step     : 0.005
Per MPI rank memory allocation (min/avg/max) = 2047 | 2047 | 2047 Mbytes
   Step        Atoms         Temp          PotEng         KinEng         TotEng         Press     
         0     1225043   0.67499444    -4.7462381      1.0124908     -3.7337472      4.4953528    
       200     1225043   1.0508298     -5.2844729      1.5762434     -3.7082294      2.8732007    
Loop time of 9.39876 on 37 procs for 200 steps with 1225043 atoms

Performance: 9192.706 tau/day, 21.279 timesteps/s, 26.068 Matom-step/s
3682.5% CPU use with 1 MPI tasks x 37 OpenMP threads

MPI task timing breakdown:
Section |  min time  |  avg time  |  max time  |%varavg| %total
---------------------------------------------------------------
Pair    | 4.1399     | 4.1399     | 4.1399     |   0.0 | 44.05
Neigh   | 1.7218     | 1.7218     | 1.7218     |   0.0 | 18.32
Comm    | 1.0195     | 1.0195     | 1.0195     |   0.0 | 10.85
Output  | 0.0032905  | 0.0032905  | 0.0032905  |   0.0 |  0.04
Modify  | 1.6777     | 1.6777     | 1.6777     |   0.0 | 17.85
Other   |            | 0.8366     |            |       |  8.90

Nlocal:    1.22504e+06 ave 1.22504e+06 max 1.22504e+06 min
Histogram: 1 0 0 0 0 0 0 0 0 0
Nghost:         191573 ave      191573 max      191573 min
Histogram: 1 0 0 0 0 0 0 0 0 0
Neighs:    4.62203e+07 ave 4.62203e+07 max 4.62203e+07 min
Histogram: 1 0 0 0 0 0 0 0 0 0

Total # of neighbors = 46220259
Ave neighs/atom = 37.729499
Neighbor list builds = 31
Dangerous builds = 0
Total wall time: 0:00:13
