LAMMPS (22 Jul 2025 - Update 4)
  using 16 OpenMP thread(s) per MPI task
using multi-threaded neighbor list subroutines
Reading data file ...
  orthogonal box = (-42.852212 -42.852212 -42.852212) to (42.852212 42.852212 42.852212)
  1 by 1 by 1 MPI processor grid
  reading atoms ...
  531441 atoms
  read_data CPU = 0.922 seconds
N        = 531441
atoms    = 531441
L        = 85.7044231722662
spacing  = 1.05807929842304
rho      = 0.8442
dt       = 0.0000001
steps    = 500
Generated 0 of 0 mixed pair_coeff terms from geometric mixing rule
Last active /omp style is pair_style lj/cut/omp
Neighbor list info ...
  update: every = 1 steps, delay = 0 steps, check = yes
  max neighbors/atom: 2000, page size: 100000
  master list distance cutoff = 2.8
  ghost atom cutoff = 2.8
  binsize = 1.4, bins = 62 62 62
  1 neighbor lists, perpetual/occasional/extra = 1 0 0
  (1) pair lj/cut/omp, perpetual
      attributes: half, newton on, omp
      pair build: half/bin/atomonly/newton/omp
      stencil: half/bin/3d
      bin: standard
Setting up Verlet run ...
  Unit style    : lj
  Current step  : 0
  Time step     : 1e-07
Per MPI rank memory allocation (min/avg/max) = 507.3 | 507.3 | 507.3 Mbytes
   Step        Atoms         Temp          PotEng         KinEng         TotEng         Press     
         0      531441   1             -5.2202185      1.4999972     -3.7202213      2.6664643    
Loop time of 1.39e-06 on 16 procs for 0 steps with 531441 atoms

2661.9% CPU use with 1 MPI tasks x 16 OpenMP threads

MPI task timing breakdown:
Section |  min time  |  avg time  |  max time  |%varavg| %total
---------------------------------------------------------------
Pair    | 0          | 0          | 0          |   0.0 |  0.00
Neigh   | 0          | 0          | 0          |   0.0 |  0.00
Comm    | 0          | 0          | 0          |   0.0 |  0.00
Output  | 0          | 0          | 0          |   0.0 |  0.00
Modify  | 0          | 0          | 0          |   0.0 |  0.00
Other   |            | 1.39e-06   |            |       |100.00

Nlocal:         531441 ave      531441 max      531441 min
Histogram: 1 0 0 0 0 0 0 0 0 0
Nghost:         127062 ave      127062 max      127062 min
Histogram: 1 0 0 0 0 0 0 0 0 0
Neighs:    2.12576e+07 ave 2.12576e+07 max 2.12576e+07 min
Histogram: 1 0 0 0 0 0 0 0 0 0

Total # of neighbors = 21257640
Ave neighs/atom = 40
Neighbor list builds = 0
Dangerous builds = 0
Generated 0 of 0 mixed pair_coeff terms from geometric mixing rule
Last active /omp style is pair_style lj/cut/omp
Setting up Verlet run ...
  Unit style    : lj
  Current step  : 0
  Time step     : 1e-07
Per MPI rank memory allocation (min/avg/max) = 507.3 | 507.3 | 507.3 Mbytes
   Step        Atoms         Temp          PotEng         KinEng         TotEng         Press     
         0      531441   1             -5.2202185      1.4999972     -3.7202213      2.6664643    
        50      531441   0.99999999    -5.2202185      1.4999972     -3.7202213      2.6664644    
Loop time of 0.592528 on 16 procs for 50 steps with 531441 atoms

Generated 0 of 0 mixed pair_coeff terms from geometric mixing rule
Last active /omp style is pair_style lj/cut/omp
Setting up Verlet run ...
  Unit style    : lj
  Current step  : 0
  Time step     : 1e-07
Per MPI rank memory allocation (min/avg/max) = 507.3 | 507.3 | 507.3 Mbytes
   Step        Atoms         Temp          PotEng         KinEng         TotEng         Press     
         0      531441   0.99999999    -5.2202185      1.4999972     -3.7202213      2.6664644    
       500      531441   0.99999906    -5.2202171      1.4999958     -3.7202213      2.6664697    
Loop time of 5.76906 on 16 procs for 500 steps with 531441 atoms

Performance: 0.749 tau/day, 86.669 timesteps/s, 46.060 Matom-step/s
1591.9% CPU use with 1 MPI tasks x 16 OpenMP threads

MPI task timing breakdown:
Section |  min time  |  avg time  |  max time  |%varavg| %total
---------------------------------------------------------------
Pair    | 3.0451     | 3.0451     | 3.0451     |   0.0 | 52.78
Neigh   | 0          | 0          | 0          |   0.0 |  0.00
Comm    | 0.63815    | 0.63815    | 0.63815    |   0.0 | 11.06
Output  | 0.0016938  | 0.0016938  | 0.0016938  |   0.0 |  0.03
Modify  | 1.039      | 1.039      | 1.039      |   0.0 | 18.01
Other   |            | 1.045      |            |       | 18.12

Nlocal:         531441 ave      531441 max      531441 min
Histogram: 1 0 0 0 0 0 0 0 0 0
Nghost:         127062 ave      127062 max      127062 min
Histogram: 1 0 0 0 0 0 0 0 0 0
Neighs:    2.12576e+07 ave 2.12576e+07 max 2.12576e+07 min
Histogram: 1 0 0 0 0 0 0 0 0 0

Total # of neighbors = 21257640
Ave neighs/atom = 40
Neighbor list builds = 0
Dangerous builds = 0
Total wall time: 0:00:07
