LAMMPS (22 Jul 2025 - Update 4)
  using 8 OpenMP thread(s) per MPI task
using multi-threaded neighbor list subroutines
Reading data file ...
  orthogonal box = (-33.858538 -33.858538 -33.858538) to (33.858538 33.858538 33.858538)
  1 by 1 by 1 MPI processor grid
  reading atoms ...
  262144 atoms
  read_data CPU = 0.455 seconds
N        = 262144
atoms    = 262144
L        = 67.7170750990745
spacing  = 1.05807929842304
rho      = 0.8442
dt       = 0.005
steps    = 200
Generated 0 of 0 mixed pair_coeff terms from geometric mixing rule
Last active /omp style is pair_style lj/cut/omp
Neighbor list info ...
  update: every = 1 steps, delay = 0 steps, check = yes
  max neighbors/atom: 2000, page size: 100000
  master list distance cutoff = 2.8
  ghost atom cutoff = 2.8
  binsize = 1.4, bins = 49 49 49
  1 neighbor lists, perpetual/occasional/extra = 1 0 0
  (1) pair lj/cut/omp, perpetual
      attributes: half, newton on, omp
      pair build: half/bin/atomonly/newton/omp
      stencil: half/bin/3d
      bin: standard
Setting up Verlet run ...
  Unit style    : lj
  Current step  : 0
  Time step     : 0.005
Per MPI rank memory allocation (min/avg/max) = 175 | 175 | 175 Mbytes
   Step        Atoms         Temp          PotEng         KinEng         TotEng         Press     
         0      262144   1             -5.2202185      1.4999943     -3.7202242      2.6664627    
Loop time of 7.06e-07 on 8 procs for 0 steps with 262144 atoms

424.9% CPU use with 1 MPI tasks x 8 OpenMP threads

MPI task timing breakdown:
Section |  min time  |  avg time  |  max time  |%varavg| %total
---------------------------------------------------------------
Pair    | 0          | 0          | 0          |   0.0 |  0.00
Neigh   | 0          | 0          | 0          |   0.0 |  0.00
Comm    | 0          | 0          | 0          |   0.0 |  0.00
Output  | 0          | 0          | 0          |   0.0 |  0.00
Modify  | 0          | 0          | 0          |   0.0 |  0.00
Other   |            | 7.06e-07   |            |       |100.00

Nlocal:         262144 ave      262144 max      262144 min
Histogram: 1 0 0 0 0 0 0 0 0 0
Nghost:          80856 ave       80856 max       80856 min
Histogram: 1 0 0 0 0 0 0 0 0 0
Neighs:    1.04858e+07 ave 1.04858e+07 max 1.04858e+07 min
Histogram: 1 0 0 0 0 0 0 0 0 0

Total # of neighbors = 10485760
Ave neighs/atom = 40
Neighbor list builds = 0
Dangerous builds = 0
Generated 0 of 0 mixed pair_coeff terms from geometric mixing rule
Last active /omp style is pair_style lj/cut/omp
Setting up Verlet run ...
  Unit style    : lj
  Current step  : 0
  Time step     : 0.005
Per MPI rank memory allocation (min/avg/max) = 175 | 175 | 175 Mbytes
   Step        Atoms         Temp          PotEng         KinEng         TotEng         Press     
         0      262144   1             -5.2202185      1.4999943     -3.7202242      2.6664627    
        20      262144   0.67585506    -4.7474902      1.0137787     -3.7337115      4.490715     
Loop time of 0.201673 on 8 procs for 20 steps with 262144 atoms

Generated 0 of 0 mixed pair_coeff terms from geometric mixing rule
Last active /omp style is pair_style lj/cut/omp
Setting up Verlet run ...
  Unit style    : lj
  Current step  : 0
  Time step     : 0.005
Per MPI rank memory allocation (min/avg/max) = 175 | 175 | 175 Mbytes
   Step        Atoms         Temp          PotEng         KinEng         TotEng         Press     
         0      262144   0.67585506    -4.7474902      1.0137787     -3.7337115      4.490715     
       200      262144   1.0507209     -5.2843622      1.5760754     -3.7082869      2.8749304    
Loop time of 3.94608 on 8 procs for 200 steps with 262144 atoms

Performance: 21895.119 tau/day, 50.683 timesteps/s, 13.286 Matom-step/s
797.2% CPU use with 1 MPI tasks x 8 OpenMP threads

MPI task timing breakdown:
Section |  min time  |  avg time  |  max time  |%varavg| %total
---------------------------------------------------------------
Pair    | 2.0438     | 2.0438     | 2.0438     |   0.0 | 51.79
Neigh   | 1.3869     | 1.3869     | 1.3869     |   0.0 | 35.15
Comm    | 0.23845    | 0.23845    | 0.23845    |   0.0 |  6.04
Output  | 0.001054   | 0.001054   | 0.001054   |   0.0 |  0.03
Modify  | 0.10832    | 0.10832    | 0.10832    |   0.0 |  2.75
Other   |            | 0.1676     |            |       |  4.25

Nlocal:         262144 ave      262144 max      262144 min
Histogram: 1 0 0 0 0 0 0 0 0 0
Nghost:          70788 ave       70788 max       70788 min
Histogram: 1 0 0 0 0 0 0 0 0 0
Neighs:     9.8913e+06 ave  9.8913e+06 max  9.8913e+06 min
Histogram: 1 0 0 0 0 0 0 0 0 0

Total # of neighbors = 9891301
Ave neighs/atom = 37.732319
Neighbor list builds = 31
Dangerous builds = 0
Total wall time: 0:00:04
