LAMMPS (22 Jul 2025 - Update 4)
  using 50 OpenMP thread(s) per MPI task
using multi-threaded neighbor list subroutines
Reading data file ...
  orthogonal box = (-62.426679 -62.426679 -62.426679) to (62.426679 62.426679 62.426679)
  1 by 1 by 1 MPI processor grid
  reading atoms ...
  1643032 atoms
  read_data CPU = 2.940 seconds
N        = 1643032
atoms    = 1643032
L        = 124.853357213919
spacing  = 1.05807929842304
rho      = 0.8442
dt       = 0.005
steps    = 200
Generated 0 of 0 mixed pair_coeff terms from geometric mixing rule
Last active /omp style is pair_style lj/cut/omp
Neighbor list info ...
  update: every = 1 steps, delay = 0 steps, check = yes
  max neighbors/atom: 2000, page size: 100000
  master list distance cutoff = 2.8
  ghost atom cutoff = 2.8
  binsize = 1.4, bins = 90 90 90
  1 neighbor lists, perpetual/occasional/extra = 1 0 0
  (1) pair lj/cut/omp, perpetual
      attributes: half, newton on, omp
      pair build: half/bin/atomonly/newton/omp
      stencil: half/bin/3d
      bin: standard
Setting up Verlet run ...
  Unit style    : lj
  Current step  : 0
  Time step     : 0.005
Per MPI rank memory allocation (min/avg/max) = 3460 | 3460 | 3460 Mbytes
   Step        Atoms         Temp          PotEng         KinEng         TotEng         Press     
         0     1643032   1             -5.2202185      1.4999991     -3.7202194      2.6664654    
Loop time of 2.014e-06 on 50 procs for 0 steps with 1643032 atoms

21996.0% CPU use with 1 MPI tasks x 50 OpenMP threads

MPI task timing breakdown:
Section |  min time  |  avg time  |  max time  |%varavg| %total
---------------------------------------------------------------
Pair    | 0          | 0          | 0          |   0.0 |  0.00
Neigh   | 0          | 0          | 0          |   0.0 |  0.00
Comm    | 0          | 0          | 0          |   0.0 |  0.00
Output  | 0          | 0          | 0          |   0.0 |  0.00
Modify  | 0          | 0          | 0          |   0.0 |  0.00
Other   |            | 2.014e-06  |            |       |100.00

Nlocal:    1.64303e+06 ave 1.64303e+06 max 1.64303e+06 min
Histogram: 1 0 0 0 0 0 0 0 0 0
Nghost:         263592 ave      263592 max      263592 min
Histogram: 1 0 0 0 0 0 0 0 0 0
Neighs:    6.57213e+07 ave 6.57213e+07 max 6.57213e+07 min
Histogram: 1 0 0 0 0 0 0 0 0 0

Total # of neighbors = 65721280
Ave neighs/atom = 40
Neighbor list builds = 0
Dangerous builds = 0
Generated 0 of 0 mixed pair_coeff terms from geometric mixing rule
Last active /omp style is pair_style lj/cut/omp
Setting up Verlet run ...
  Unit style    : lj
  Current step  : 0
  Time step     : 0.005
Per MPI rank memory allocation (min/avg/max) = 3460 | 3460 | 3460 Mbytes
   Step        Atoms         Temp          PotEng         KinEng         TotEng         Press     
         0     1643032   1             -5.2202185      1.4999991     -3.7202194      2.6664654    
        20     1643032   0.67454063    -4.745544       1.0118103     -3.7337336      4.498293     
Loop time of 1.08138 on 50 procs for 20 steps with 1643032 atoms

Generated 0 of 0 mixed pair_coeff terms from geometric mixing rule
Last active /omp style is pair_style lj/cut/omp
Setting up Verlet run ...
  Unit style    : lj
  Current step  : 0
  Time step     : 0.005
Per MPI rank memory allocation (min/avg/max) = 3460 | 3460 | 3460 Mbytes
   Step        Atoms         Temp          PotEng         KinEng         TotEng         Press     
         0     1643032   0.67454063    -4.745544       1.0118103     -3.7337336      4.498293     
       200     1643032   1.0507763     -5.2844056      1.5761635     -3.7082422      2.8764696    
Loop time of 12.7516 on 50 procs for 200 steps with 1643032 atoms

Performance: 6775.625 tau/day, 15.684 timesteps/s, 25.770 Matom-step/s
4976.0% CPU use with 1 MPI tasks x 50 OpenMP threads

MPI task timing breakdown:
Section |  min time  |  avg time  |  max time  |%varavg| %total
---------------------------------------------------------------
Pair    | 5.9164     | 5.9164     | 5.9164     |   0.0 | 46.40
Neigh   | 1.929      | 1.929      | 1.929      |   0.0 | 15.13
Comm    | 1.3342     | 1.3342     | 1.3342     |   0.0 | 10.46
Output  | 0.0040694  | 0.0040694  | 0.0040694  |   0.0 |  0.03
Modify  | 2.4459     | 2.4459     | 2.4459     |   0.0 | 19.18
Other   |            | 1.122      |            |       |  8.80

Nlocal:    1.64303e+06 ave 1.64303e+06 max 1.64303e+06 min
Histogram: 1 0 0 0 0 0 0 0 0 0
Nghost:         231844 ave      231844 max      231844 min
Histogram: 1 0 0 0 0 0 0 0 0 0
Neighs:    6.19951e+07 ave 6.19951e+07 max 6.19951e+07 min
Histogram: 1 0 0 0 0 0 0 0 0 0

Total # of neighbors = 61995077
Ave neighs/atom = 37.732118
Neighbor list builds = 32
Dangerous builds = 0
Total wall time: 0:00:18
