LAMMPS (22 Jul 2025 - Update 4)
  using 8 OpenMP thread(s) per MPI task
using multi-threaded neighbor list subroutines
Reading data file ...
  orthogonal box = (-33.858538 -33.858538 -33.858538) to (33.858538 33.858538 33.858538)
  1 by 1 by 1 MPI processor grid
  reading atoms ...
  262144 atoms
  read_data CPU = 0.463 seconds
N        = 262144
atoms    = 262144
L        = 67.7170750990745
spacing  = 1.05807929842304
rho      = 0.8442
dt       = 0.0000001
steps    = 500
Generated 0 of 0 mixed pair_coeff terms from geometric mixing rule
Last active /omp style is pair_style lj/cut/omp
Neighbor list info ...
  update: every = 1 steps, delay = 0 steps, check = yes
  max neighbors/atom: 2000, page size: 100000
  master list distance cutoff = 2.8
  ghost atom cutoff = 2.8
  binsize = 1.4, bins = 49 49 49
  1 neighbor lists, perpetual/occasional/extra = 1 0 0
  (1) pair lj/cut/omp, perpetual
      attributes: half, newton on, omp
      pair build: half/bin/atomonly/newton/omp
      stencil: half/bin/3d
      bin: standard
Setting up Verlet run ...
  Unit style    : lj
  Current step  : 0
  Time step     : 1e-07
Per MPI rank memory allocation (min/avg/max) = 175 | 175 | 175 Mbytes
   Step        Atoms         Temp          PotEng         KinEng         TotEng         Press     
         0      262144   1             -5.2202185      1.4999943     -3.7202242      2.6664627    
Loop time of 9.71e-07 on 8 procs for 0 steps with 262144 atoms

2368.7% CPU use with 1 MPI tasks x 8 OpenMP threads

MPI task timing breakdown:
Section |  min time  |  avg time  |  max time  |%varavg| %total
---------------------------------------------------------------
Pair    | 0          | 0          | 0          |   0.0 |  0.00
Neigh   | 0          | 0          | 0          |   0.0 |  0.00
Comm    | 0          | 0          | 0          |   0.0 |  0.00
Output  | 0          | 0          | 0          |   0.0 |  0.00
Modify  | 0          | 0          | 0          |   0.0 |  0.00
Other   |            | 9.71e-07   |            |       |100.00

Nlocal:         262144 ave      262144 max      262144 min
Histogram: 1 0 0 0 0 0 0 0 0 0
Nghost:          80856 ave       80856 max       80856 min
Histogram: 1 0 0 0 0 0 0 0 0 0
Neighs:    1.04858e+07 ave 1.04858e+07 max 1.04858e+07 min
Histogram: 1 0 0 0 0 0 0 0 0 0

Total # of neighbors = 10485760
Ave neighs/atom = 40
Neighbor list builds = 0
Dangerous builds = 0
Generated 0 of 0 mixed pair_coeff terms from geometric mixing rule
Last active /omp style is pair_style lj/cut/omp
Setting up Verlet run ...
  Unit style    : lj
  Current step  : 0
  Time step     : 1e-07
Per MPI rank memory allocation (min/avg/max) = 175 | 175 | 175 Mbytes
   Step        Atoms         Temp          PotEng         KinEng         TotEng         Press     
         0      262144   1             -5.2202185      1.4999943     -3.7202242      2.6664627    
        50      262144   0.99999999    -5.2202185      1.4999943     -3.7202242      2.6664627    
Loop time of 0.340212 on 8 procs for 50 steps with 262144 atoms

Generated 0 of 0 mixed pair_coeff terms from geometric mixing rule
Last active /omp style is pair_style lj/cut/omp
Setting up Verlet run ...
  Unit style    : lj
  Current step  : 0
  Time step     : 1e-07
Per MPI rank memory allocation (min/avg/max) = 175 | 175 | 175 Mbytes
   Step        Atoms         Temp          PotEng         KinEng         TotEng         Press     
         0      262144   0.99999999    -5.2202185      1.4999943     -3.7202242      2.6664627    
       500      262144   0.99999906    -5.2202171      1.4999929     -3.7202242      2.666468     
Loop time of 3.2908 on 8 procs for 500 steps with 262144 atoms

Performance: 1.313 tau/day, 151.939 timesteps/s, 39.830 Matom-step/s
796.5% CPU use with 1 MPI tasks x 8 OpenMP threads

MPI task timing breakdown:
Section |  min time  |  avg time  |  max time  |%varavg| %total
---------------------------------------------------------------
Pair    | 2.2748     | 2.2748     | 2.2748     |   0.0 | 69.13
Neigh   | 0          | 0          | 0          |   0.0 |  0.00
Comm    | 0.30344    | 0.30344    | 0.30344    |   0.0 |  9.22
Output  | 0.0010413  | 0.0010413  | 0.0010413  |   0.0 |  0.03
Modify  | 0.25577    | 0.25577    | 0.25577    |   0.0 |  7.77
Other   |            | 0.4558     |            |       | 13.85

Nlocal:         262144 ave      262144 max      262144 min
Histogram: 1 0 0 0 0 0 0 0 0 0
Nghost:          80856 ave       80856 max       80856 min
Histogram: 1 0 0 0 0 0 0 0 0 0
Neighs:    1.04858e+07 ave 1.04858e+07 max 1.04858e+07 min
Histogram: 1 0 0 0 0 0 0 0 0 0

Total # of neighbors = 10485760
Ave neighs/atom = 40
Neighbor list builds = 0
Dangerous builds = 0
Total wall time: 0:00:04
