LAMMPS (22 Jul 2025 - Update 4)
  using 2 OpenMP thread(s) per MPI task
using multi-threaded neighbor list subroutines
Reading data file ...
  orthogonal box = (-21.161586 -21.161586 -21.161586) to (21.161586 21.161586 21.161586)
  1 by 1 by 1 MPI processor grid
  reading atoms ...
  64000 atoms
  read_data CPU = 0.114 seconds
N        = 64000
atoms    = 64000
L        = 42.3231719369216
spacing  = 1.05807929842304
rho      = 0.8442
dt       = 0.005
steps    = 200
Generated 0 of 0 mixed pair_coeff terms from geometric mixing rule
Last active /omp style is pair_style lj/cut/omp
Neighbor list info ...
  update: every = 1 steps, delay = 0 steps, check = yes
  max neighbors/atom: 2000, page size: 100000
  master list distance cutoff = 2.8
  ghost atom cutoff = 2.8
  binsize = 1.4, bins = 31 31 31
  1 neighbor lists, perpetual/occasional/extra = 1 0 0
  (1) pair lj/cut/omp, perpetual
      attributes: half, newton on, omp
      pair build: half/bin/atomonly/newton/omp
      stencil: half/bin/3d
      bin: standard
Setting up Verlet run ...
  Unit style    : lj
  Current step  : 0
  Time step     : 0.005
Per MPI rank memory allocation (min/avg/max) = 30.54 | 30.54 | 30.54 Mbytes
   Step        Atoms         Temp          PotEng         KinEng         TotEng         Press     
         0       64000   1             -5.2202185      1.4999766     -3.720242       2.6664527    
Loop time of 7.15e-07 on 2 procs for 0 steps with 64000 atoms

279.7% CPU use with 1 MPI tasks x 2 OpenMP threads

MPI task timing breakdown:
Section |  min time  |  avg time  |  max time  |%varavg| %total
---------------------------------------------------------------
Pair    | 0          | 0          | 0          |   0.0 |  0.00
Neigh   | 0          | 0          | 0          |   0.0 |  0.00
Comm    | 0          | 0          | 0          |   0.0 |  0.00
Output  | 0          | 0          | 0          |   0.0 |  0.00
Modify  | 0          | 0          | 0          |   0.0 |  0.00
Other   |            | 7.15e-07   |            |       |100.00

Nlocal:          64000 ave       64000 max       64000 min
Histogram: 1 0 0 0 0 0 0 0 0 0
Nghost:          33336 ave       33336 max       33336 min
Histogram: 1 0 0 0 0 0 0 0 0 0
Neighs:       2.56e+06 ave    2.56e+06 max    2.56e+06 min
Histogram: 1 0 0 0 0 0 0 0 0 0

Total # of neighbors = 2560000
Ave neighs/atom = 40
Neighbor list builds = 0
Dangerous builds = 0
Generated 0 of 0 mixed pair_coeff terms from geometric mixing rule
Last active /omp style is pair_style lj/cut/omp
Setting up Verlet run ...
  Unit style    : lj
  Current step  : 0
  Time step     : 0.005
Per MPI rank memory allocation (min/avg/max) = 30.54 | 30.54 | 30.54 Mbytes
   Step        Atoms         Temp          PotEng         KinEng         TotEng         Press     
         0       64000   1             -5.2202185      1.4999766     -3.720242       2.6664527    
        20       64000   0.67437517    -4.745317       1.0115469     -3.7337701      4.4982568    
Loop time of 0.157749 on 2 procs for 20 steps with 64000 atoms

Generated 0 of 0 mixed pair_coeff terms from geometric mixing rule
Last active /omp style is pair_style lj/cut/omp
Setting up Verlet run ...
  Unit style    : lj
  Current step  : 0
  Time step     : 0.005
Per MPI rank memory allocation (min/avg/max) = 30.54 | 30.54 | 30.54 Mbytes
   Step        Atoms         Temp          PotEng         KinEng         TotEng         Press     
         0       64000   0.67437517    -4.745317       1.0115469     -3.7337701      4.4982568    
       200       64000   1.0468994     -5.2785211      1.5703246     -3.7081965      2.8991967    
Loop time of 3.28439 on 2 procs for 200 steps with 64000 atoms

Performance: 26306.239 tau/day, 60.894 timesteps/s, 3.897 Matom-step/s
199.6% CPU use with 1 MPI tasks x 2 OpenMP threads

MPI task timing breakdown:
Section |  min time  |  avg time  |  max time  |%varavg| %total
---------------------------------------------------------------
Pair    | 1.9324     | 1.9324     | 1.9324     |   0.0 | 58.84
Neigh   | 1.2072     | 1.2072     | 1.2072     |   0.0 | 36.76
Comm    | 0.062859   | 0.062859   | 0.062859   |   0.0 |  1.91
Output  | 0.00023693 | 0.00023693 | 0.00023693 |   0.0 |  0.01
Modify  | 0.051528   | 0.051528   | 0.051528   |   0.0 |  1.57
Other   |            | 0.03019    |            |       |  0.92

Nlocal:          64000 ave       64000 max       64000 min
Histogram: 1 0 0 0 0 0 0 0 0 0
Nghost:          29094 ave       29094 max       29094 min
Histogram: 1 0 0 0 0 0 0 0 0 0
Neighs:    2.41522e+06 ave 2.41522e+06 max 2.41522e+06 min
Histogram: 1 0 0 0 0 0 0 0 0 0

Total # of neighbors = 2415224
Ave neighs/atom = 37.737875
Neighbor list builds = 29
Dangerous builds = 0
Total wall time: 0:00:03
