LAMMPS (22 Jul 2025 - Update 4)
  using 2 OpenMP thread(s) per MPI task
using multi-threaded neighbor list subroutines
Reading data file ...
  orthogonal box = (-21.161586 -21.161586 -21.161586) to (21.161586 21.161586 21.161586)
  1 by 1 by 1 MPI processor grid
  reading atoms ...
  64000 atoms
  read_data CPU = 0.117 seconds
N        = 64000
atoms    = 64000
L        = 42.3231719369216
spacing  = 1.05807929842304
rho      = 0.8442
dt       = 0.005
steps    = 500
Generated 0 of 0 mixed pair_coeff terms from geometric mixing rule
Last active /omp style is pair_style lj/cut/omp
Neighbor list info ...
  update: every = 1 steps, delay = 0 steps, check = yes
  max neighbors/atom: 2000, page size: 100000
  master list distance cutoff = 2.8
  ghost atom cutoff = 2.8
  binsize = 1.4, bins = 31 31 31
  1 neighbor lists, perpetual/occasional/extra = 1 0 0
  (1) pair lj/cut/omp, perpetual
      attributes: half, newton on, omp
      pair build: half/bin/atomonly/newton/omp
      stencil: half/bin/3d
      bin: standard
Setting up Verlet run ...
  Unit style    : lj
  Current step  : 0
  Time step     : 0.005
Per MPI rank memory allocation (min/avg/max) = 30.54 | 30.54 | 30.54 Mbytes
   Step        Atoms         Temp          PotEng         KinEng         TotEng         Press     
         0       64000   1             -5.2202185      1.4999766     -3.720242       2.6664527    
Loop time of 5.65e-07 on 2 procs for 0 steps with 64000 atoms

177.0% CPU use with 1 MPI tasks x 2 OpenMP threads

MPI task timing breakdown:
Section |  min time  |  avg time  |  max time  |%varavg| %total
---------------------------------------------------------------
Pair    | 0          | 0          | 0          |   0.0 |  0.00
Neigh   | 0          | 0          | 0          |   0.0 |  0.00
Comm    | 0          | 0          | 0          |   0.0 |  0.00
Output  | 0          | 0          | 0          |   0.0 |  0.00
Modify  | 0          | 0          | 0          |   0.0 |  0.00
Other   |            | 5.65e-07   |            |       |100.00

Nlocal:          64000 ave       64000 max       64000 min
Histogram: 1 0 0 0 0 0 0 0 0 0
Nghost:          33336 ave       33336 max       33336 min
Histogram: 1 0 0 0 0 0 0 0 0 0
Neighs:       2.56e+06 ave    2.56e+06 max    2.56e+06 min
Histogram: 1 0 0 0 0 0 0 0 0 0

Total # of neighbors = 2560000
Ave neighs/atom = 40
Neighbor list builds = 0
Dangerous builds = 0
Generated 0 of 0 mixed pair_coeff terms from geometric mixing rule
Last active /omp style is pair_style lj/cut/omp
Setting up Verlet run ...
  Unit style    : lj
  Current step  : 0
  Time step     : 0.005
Per MPI rank memory allocation (min/avg/max) = 30.54 | 30.54 | 30.54 Mbytes
   Step        Atoms         Temp          PotEng         KinEng         TotEng         Press     
         0       64000   1             -5.2202185      1.4999766     -3.720242       2.6664527    
        50       64000   1.0290653     -5.2588964      1.5435738     -3.7153226      2.6412777    
Loop time of 0.590362 on 2 procs for 50 steps with 64000 atoms

Generated 0 of 0 mixed pair_coeff terms from geometric mixing rule
Last active /omp style is pair_style lj/cut/omp
Setting up Verlet run ...
  Unit style    : lj
  Current step  : 0
  Time step     : 0.005
Per MPI rank memory allocation (min/avg/max) = 30.54 | 30.54 | 30.54 Mbytes
   Step        Atoms         Temp          PotEng         KinEng         TotEng         Press     
         0       64000   1.0290653     -5.2588964      1.5435738     -3.7153226      2.6412777    
       500       64000   1.0552296     -5.2910451      1.5828196     -3.7082255      2.8536133    
Loop time of 8.53789 on 2 procs for 500 steps with 64000 atoms

Performance: 25298.985 tau/day, 58.562 timesteps/s, 3.748 Matom-step/s
199.7% CPU use with 1 MPI tasks x 2 OpenMP threads

MPI task timing breakdown:
Section |  min time  |  avg time  |  max time  |%varavg| %total
---------------------------------------------------------------
Pair    | 4.751      | 4.751      | 4.751      |   0.0 | 55.65
Neigh   | 3.4179     | 3.4179     | 3.4179     |   0.0 | 40.03
Comm    | 0.16206    | 0.16206    | 0.16206    |   0.0 |  1.90
Output  | 0.00024952 | 0.00024952 | 0.00024952 |   0.0 |  0.00
Modify  | 0.13205    | 0.13205    | 0.13205    |   0.0 |  1.55
Other   |            | 0.07463    |            |       |  0.87

Nlocal:          64000 ave       64000 max       64000 min
Histogram: 1 0 0 0 0 0 0 0 0 0
Nghost:          28946 ave       28946 max       28946 min
Histogram: 1 0 0 0 0 0 0 0 0 0
Neighs:    2.41312e+06 ave 2.41312e+06 max 2.41312e+06 min
Histogram: 1 0 0 0 0 0 0 0 0 0

Total # of neighbors = 2413123
Ave neighs/atom = 37.705047
Neighbor list builds = 79
Dangerous builds = 0
Total wall time: 0:00:09
