LAMMPS (22 Jul 2025 - Update 4)
  using 1 OpenMP thread(s) per MPI task
using multi-threaded neighbor list subroutines
Reading data file ...
  orthogonal box = (-41.251875 -41.251875 -41.251875) to (41.251875 41.251875 41.251875)
  1 by 1 by 1 MPI processor grid
  reading atoms ...
  125000 atoms
  read_data CPU = 0.216 seconds
New timer settings: style=full  mode=nosync  timeout=off
WARNING: No fixes with time integration, atoms won't move
For more information see https://docs.lammps.org/err0028 (src/verlet.cpp:60)
Generated 0 of 0 mixed pair_coeff terms from geometric mixing rule
Last active /omp style is pair_style lj/cut/omp
Neighbor list info ...
  update: every = 1 steps, delay = 0 steps, check = yes
  max neighbors/atom: 2000, page size: 100000
  master list distance cutoff = 3.001
  ghost atom cutoff = 3.001
  binsize = 1.5005, bins = 55 55 55
  1 neighbor lists, perpetual/occasional/extra = 1 0 0
  (1) pair lj/cut/omp, perpetual
      attributes: half, newton on, omp
      pair build: half/bin/atomonly/newton/omp
      stencil: half/bin/3d
      bin: standard
Setting up Verlet run ...
  Unit style    : lj
  Current step  : 0
  Time step     : 0.005
Per MPI rank memory allocation (min/avg/max) = 41.5 | 41.5 | 41.5 Mbytes
   Step          Temp          E_pair         E_mol          TotEng         Press     
         0   0             -14.805894      0             -14.805894     -2.5369816    
Loop time of 5.8e-07 on 1 procs for 0 steps with 125000 atoms

172.4% CPU use with 1 MPI tasks x 1 OpenMP threads

MPI task timing breakdown:
Section |  min time  |  avg time  |  max time  |%varavg|  %CPU | %total
-----------------------------------------------------------------------
Pair    | 0          | 0          | 0          |   0.0 | 100.0 |  0.00
Neigh   | 0          | 0          | 0          |   0.0 | 100.0 |  0.00
Comm    | 0          | 0          | 0          |   0.0 | 100.0 |  0.00
Output  | 0          | 0          | 0          |   0.0 | 100.0 |  0.00
Modify  | 0          | 0          | 0          |   0.0 | 100.0 |  0.00
Other   |            | 5.8e-07    |            |       |       |100.00

Nlocal:         125000 ave      125000 max      125000 min
Histogram: 1 0 0 0 0 0 0 0 0 0
Nghost:              0 ave           0 max           0 min
Histogram: 1 0 0 0 0 0 0 0 0 0
Neighs:    4.71257e+06 ave 4.71257e+06 max 4.71257e+06 min
Histogram: 1 0 0 0 0 0 0 0 0 0

Total # of neighbors = 4712572
Ave neighs/atom = 37.700576
Neighbor list builds = 0
Dangerous builds = 0
   Step          Temp          E_pair         E_mol          TotEng         Press     
         0   0             -14.805894      0             -14.805894     -2.5369816    
       100   0             -14.805894      0             -14.805894     -2.5369816    
Loop time of 1.93613 on 1 procs for 100 steps with 125000 atoms

Performance: 22312.535 tau/day, 51.649 timesteps/s, 6.456 Matom-step/s
100.0% CPU use with 1 MPI tasks x 1 OpenMP threads

MPI task timing breakdown:
Section |  min time  |  avg time  |  max time  |%varavg|  %CPU | %total
-----------------------------------------------------------------------
Pair    | 1.9243     | 1.9243     | 1.9243     |   0.0 | 100.0 | 99.39
Neigh   | 0          | 0          | 0          |   0.0 | 100.0 |  0.00
Comm    | 6.9044e-05 | 6.9044e-05 | 6.9044e-05 |   0.0 | 100.0 |  0.00
Output  | 0.00022614 | 0.00022614 | 0.00022614 |   0.0 | 100.0 |  0.01
Modify  | 0.011402   | 0.011402   | 0.011402   |   0.0 |  99.5 |  0.59
Other   |            | 0.0001158  |            |       |       |  0.01

Thread timing breakdown (MPI rank 0):
Total threaded time 1.924 / 99.4%
Section |  min time  |  avg time  |  max time  |%varavg| %total
---------------------------------------------------------------
Pair    |     1.9237 |     1.9237 |     1.9237 |   0.0 | 99.98
Neigh   |          0 |          0 |          0 |   0.0 |  0.00
Reduce  |   0.000346 |   0.000346 |   0.000346 |   0.0 |  0.02

Nlocal:         125000 ave      125000 max      125000 min
Histogram: 1 0 0 0 0 0 0 0 0 0
Nghost:              0 ave           0 max           0 min
Histogram: 1 0 0 0 0 0 0 0 0 0
Neighs:    4.71257e+06 ave 4.71257e+06 max 4.71257e+06 min
Histogram: 1 0 0 0 0 0 0 0 0 0

Total # of neighbors = 4712572
Ave neighs/atom = 37.700576
Neighbor list builds = 0
Dangerous builds = 0
n_dim    = 50
atoms    = 125000
a        = 1.1225
rc       = 3
Total wall time: 0:00:02
