LAMMPS (22 Jul 2025 - Update 4)
  using 4 OpenMP thread(s) per MPI task
using multi-threaded neighbor list subroutines
Reading data file ...
  orthogonal box = (-26.981022 -26.981022 -26.981022) to (26.981022 26.981022 26.981022)
  1 by 1 by 1 MPI processor grid
  reading atoms ...
  132651 atoms
  read_data CPU = 0.233 seconds
N        = 132651
atoms    = 132651
L        = 53.962044219575
spacing  = 1.05807929842304
rho      = 0.8442
dt       = 0.0000001
steps    = 500
Generated 0 of 0 mixed pair_coeff terms from geometric mixing rule
Last active /omp style is pair_style lj/cut/omp
Neighbor list info ...
  update: every = 1 steps, delay = 0 steps, check = yes
  max neighbors/atom: 2000, page size: 100000
  master list distance cutoff = 2.8
  ghost atom cutoff = 2.8
  binsize = 1.4, bins = 39 39 39
  1 neighbor lists, perpetual/occasional/extra = 1 0 0
  (1) pair lj/cut/omp, perpetual
      attributes: half, newton on, omp
      pair build: half/bin/atomonly/newton/omp
      stencil: half/bin/3d
      bin: standard
Setting up Verlet run ...
  Unit style    : lj
  Current step  : 0
  Time step     : 1e-07
Per MPI rank memory allocation (min/avg/max) = 72.96 | 72.96 | 72.96 Mbytes
   Step        Atoms         Temp          PotEng         KinEng         TotEng         Press     
         0      132651   1             -5.2202185      1.4999887     -3.7202298      2.6664596    
Loop time of 5.97e-07 on 4 procs for 0 steps with 132651 atoms

1340.0% CPU use with 1 MPI tasks x 4 OpenMP threads

MPI task timing breakdown:
Section |  min time  |  avg time  |  max time  |%varavg| %total
---------------------------------------------------------------
Pair    | 0          | 0          | 0          |   0.0 |  0.00
Neigh   | 0          | 0          | 0          |   0.0 |  0.00
Comm    | 0          | 0          | 0          |   0.0 |  0.00
Output  | 0          | 0          | 0          |   0.0 |  0.00
Modify  | 0          | 0          | 0          |   0.0 |  0.00
Other   |            | 5.97e-07   |            |       |100.00

Nlocal:         132651 ave      132651 max      132651 min
Histogram: 1 0 0 0 0 0 0 0 0 0
Nghost:          52542 ave       52542 max       52542 min
Histogram: 1 0 0 0 0 0 0 0 0 0
Neighs:    5.30604e+06 ave 5.30604e+06 max 5.30604e+06 min
Histogram: 1 0 0 0 0 0 0 0 0 0

Total # of neighbors = 5306040
Ave neighs/atom = 40
Neighbor list builds = 0
Dangerous builds = 0
Generated 0 of 0 mixed pair_coeff terms from geometric mixing rule
Last active /omp style is pair_style lj/cut/omp
Setting up Verlet run ...
  Unit style    : lj
  Current step  : 0
  Time step     : 1e-07
Per MPI rank memory allocation (min/avg/max) = 72.96 | 72.96 | 72.96 Mbytes
   Step        Atoms         Temp          PotEng         KinEng         TotEng         Press     
         0      132651   1             -5.2202185      1.4999887     -3.7202298      2.6664596    
        50      132651   0.99999999    -5.2202185      1.4999887     -3.7202298      2.6664596    
Loop time of 0.281599 on 4 procs for 50 steps with 132651 atoms

Generated 0 of 0 mixed pair_coeff terms from geometric mixing rule
Last active /omp style is pair_style lj/cut/omp
Setting up Verlet run ...
  Unit style    : lj
  Current step  : 0
  Time step     : 1e-07
Per MPI rank memory allocation (min/avg/max) = 72.96 | 72.96 | 72.96 Mbytes
   Step        Atoms         Temp          PotEng         KinEng         TotEng         Press     
         0      132651   0.99999999    -5.2202185      1.4999887     -3.7202298      2.6664596    
       500      132651   0.99999906    -5.2202171      1.4999873     -3.7202298      2.6664649    
Loop time of 3.32007 on 4 procs for 500 steps with 132651 atoms

Performance: 1.301 tau/day, 150.599 timesteps/s, 19.977 Matom-step/s
398.4% CPU use with 1 MPI tasks x 4 OpenMP threads

MPI task timing breakdown:
Section |  min time  |  avg time  |  max time  |%varavg| %total
---------------------------------------------------------------
Pair    | 2.825      | 2.825      | 2.825      |   0.0 | 85.09
Neigh   | 0          | 0          | 0          |   0.0 |  0.00
Comm    | 0.1552     | 0.1552     | 0.1552     |   0.0 |  4.67
Output  | 0.00048347 | 0.00048347 | 0.00048347 |   0.0 |  0.01
Modify  | 0.17656    | 0.17656    | 0.17656    |   0.0 |  5.32
Other   |            | 0.1628     |            |       |  4.90

Nlocal:         132651 ave      132651 max      132651 min
Histogram: 1 0 0 0 0 0 0 0 0 0
Nghost:          52542 ave       52542 max       52542 min
Histogram: 1 0 0 0 0 0 0 0 0 0
Neighs:    5.30604e+06 ave 5.30604e+06 max 5.30604e+06 min
Histogram: 1 0 0 0 0 0 0 0 0 0

Total # of neighbors = 5306040
Ave neighs/atom = 40
Neighbor list builds = 0
Dangerous builds = 0
Total wall time: 0:00:03
