LAMMPS (22 Jul 2025 - Update 4)
  using 56 OpenMP thread(s) per MPI task
using multi-threaded neighbor list subroutines
Reading data file ...
  orthogonal box = (-64.542837 -64.542837 -64.542837) to (64.542837 64.542837 64.542837)
  1 by 1 by 1 MPI processor grid
  reading atoms ...
  1815848 atoms
  read_data CPU = 3.250 seconds
N        = 1815848
atoms    = 1815848
L        = 129.085674407611
spacing  = 1.05807929842304
rho      = 0.8442
dt       = 0.0000001
steps    = 500
Generated 0 of 0 mixed pair_coeff terms from geometric mixing rule
Last active /omp style is pair_style lj/cut/omp
Neighbor list info ...
  update: every = 1 steps, delay = 0 steps, check = yes
  max neighbors/atom: 2000, page size: 100000
  master list distance cutoff = 2.8
  ghost atom cutoff = 2.8
  binsize = 1.4, bins = 93 93 93
  1 neighbor lists, perpetual/occasional/extra = 1 0 0
  (1) pair lj/cut/omp, perpetual
      attributes: half, newton on, omp
      pair build: half/bin/atomonly/newton/omp
      stencil: half/bin/3d
      bin: standard
Setting up Verlet run ...
  Unit style    : lj
  Current step  : 0
  Time step     : 1e-07
Per MPI rank memory allocation (min/avg/max) = 4176 | 4176 | 4176 Mbytes
   Step        Atoms         Temp          PotEng         KinEng         TotEng         Press     
         0     1815848   1             -5.2202185      1.4999992     -3.7202193      2.6664655    
Loop time of 2.2e-06 on 56 procs for 0 steps with 1815848 atoms

20454.5% CPU use with 1 MPI tasks x 56 OpenMP threads

MPI task timing breakdown:
Section |  min time  |  avg time  |  max time  |%varavg| %total
---------------------------------------------------------------
Pair    | 0          | 0          | 0          |   0.0 |  0.00
Neigh   | 0          | 0          | 0          |   0.0 |  0.00
Comm    | 0          | 0          | 0          |   0.0 |  0.00
Output  | 0          | 0          | 0          |   0.0 |  0.00
Modify  | 0          | 0          | 0          |   0.0 |  0.00
Other   |            | 2.2e-06    |            |       |100.00

Nlocal:    1.81585e+06 ave 1.81585e+06 max 1.81585e+06 min
Histogram: 1 0 0 0 0 0 0 0 0 0
Nghost:         281304 ave      281304 max      281304 min
Histogram: 1 0 0 0 0 0 0 0 0 0
Neighs:    7.26339e+07 ave 7.26339e+07 max 7.26339e+07 min
Histogram: 1 0 0 0 0 0 0 0 0 0

Total # of neighbors = 72633920
Ave neighs/atom = 40
Neighbor list builds = 0
Dangerous builds = 0
Generated 0 of 0 mixed pair_coeff terms from geometric mixing rule
Last active /omp style is pair_style lj/cut/omp
Setting up Verlet run ...
  Unit style    : lj
  Current step  : 0
  Time step     : 1e-07
Per MPI rank memory allocation (min/avg/max) = 4176 | 4176 | 4176 Mbytes
   Step        Atoms         Temp          PotEng         KinEng         TotEng         Press     
         0     1815848   1             -5.2202185      1.4999992     -3.7202193      2.6664655    
        50     1815848   0.99999999    -5.2202185      1.4999992     -3.7202193      2.6664655    
Loop time of 4.21424 on 56 procs for 50 steps with 1815848 atoms

Generated 0 of 0 mixed pair_coeff terms from geometric mixing rule
Last active /omp style is pair_style lj/cut/omp
Setting up Verlet run ...
  Unit style    : lj
  Current step  : 0
  Time step     : 1e-07
Per MPI rank memory allocation (min/avg/max) = 4176 | 4176 | 4176 Mbytes
   Step        Atoms         Temp          PotEng         KinEng         TotEng         Press     
         0     1815848   0.99999999    -5.2202185      1.4999992     -3.7202193      2.6664655    
       500     1815848   0.99999906    -5.2202171      1.4999978     -3.7202193      2.6664708    
Loop time of 43.0989 on 56 procs for 500 steps with 1815848 atoms

Performance: 0.100 tau/day, 11.601 timesteps/s, 21.066 Matom-step/s
5573.8% CPU use with 1 MPI tasks x 56 OpenMP threads

MPI task timing breakdown:
Section |  min time  |  avg time  |  max time  |%varavg| %total
---------------------------------------------------------------
Pair    | 29.91      | 29.91      | 29.91      |   0.0 | 69.40
Neigh   | 0          | 0          | 0          |   0.0 |  0.00
Comm    | 1.8265     | 1.8265     | 1.8265     |   0.0 |  4.24
Output  | 0.0041999  | 0.0041999  | 0.0041999  |   0.0 |  0.01
Modify  | 7.7359     | 7.7359     | 7.7359     |   0.0 | 17.95
Other   |            | 3.623      |            |       |  8.41

Nlocal:    1.81585e+06 ave 1.81585e+06 max 1.81585e+06 min
Histogram: 1 0 0 0 0 0 0 0 0 0
Nghost:         281304 ave      281304 max      281304 min
Histogram: 1 0 0 0 0 0 0 0 0 0
Neighs:    7.26339e+07 ave 7.26339e+07 max 7.26339e+07 min
Histogram: 1 0 0 0 0 0 0 0 0 0

Total # of neighbors = 72633920
Ave neighs/atom = 40
Neighbor list builds = 0
Dangerous builds = 0
Total wall time: 0:00:53
