LAMMPS (22 Jul 2025 - Update 4)
  using 3 OpenMP thread(s) per MPI task
using multi-threaded neighbor list subroutines
Reading data file ...
  orthogonal box = (-24.335824 -24.335824 -24.335824) to (24.335824 24.335824 24.335824)
  1 by 1 by 1 MPI processor grid
  reading atoms ...
  97336 atoms
  read_data CPU = 0.173 seconds
N        = 97336
atoms    = 97336
L        = 48.6716477274598
spacing  = 1.05807929842304
rho      = 0.8442
dt       = 0.005
steps    = 500
Generated 0 of 0 mixed pair_coeff terms from geometric mixing rule
Last active /omp style is pair_style lj/cut/omp
Neighbor list info ...
  update: every = 1 steps, delay = 0 steps, check = yes
  max neighbors/atom: 2000, page size: 100000
  master list distance cutoff = 2.8
  ghost atom cutoff = 2.8
  binsize = 1.4, bins = 35 35 35
  1 neighbor lists, perpetual/occasional/extra = 1 0 0
  (1) pair lj/cut/omp, perpetual
      attributes: half, newton on, omp
      pair build: half/bin/atomonly/newton/omp
      stencil: half/bin/3d
      bin: standard
Setting up Verlet run ...
  Unit style    : lj
  Current step  : 0
  Time step     : 0.005
Per MPI rank memory allocation (min/avg/max) = 50.05 | 50.05 | 50.05 Mbytes
   Step        Atoms         Temp          PotEng         KinEng         TotEng         Press     
         0       97336   1             -5.2202185      1.4999846     -3.7202339      2.6664572    
Loop time of 6.19e-07 on 3 procs for 0 steps with 97336 atoms

323.1% CPU use with 1 MPI tasks x 3 OpenMP threads

MPI task timing breakdown:
Section |  min time  |  avg time  |  max time  |%varavg| %total
---------------------------------------------------------------
Pair    | 0          | 0          | 0          |   0.0 |  0.00
Neigh   | 0          | 0          | 0          |   0.0 |  0.00
Comm    | 0          | 0          | 0          |   0.0 |  0.00
Output  | 0          | 0          | 0          |   0.0 |  0.00
Modify  | 0          | 0          | 0          |   0.0 |  0.00
Other   |            | 6.19e-07   |            |       |100.00

Nlocal:          97336 ave       97336 max       97336 min
Histogram: 1 0 0 0 0 0 0 0 0 0
Nghost:          43272 ave       43272 max       43272 min
Histogram: 1 0 0 0 0 0 0 0 0 0
Neighs:    3.89344e+06 ave 3.89344e+06 max 3.89344e+06 min
Histogram: 1 0 0 0 0 0 0 0 0 0

Total # of neighbors = 3893440
Ave neighs/atom = 40
Neighbor list builds = 0
Dangerous builds = 0
Generated 0 of 0 mixed pair_coeff terms from geometric mixing rule
Last active /omp style is pair_style lj/cut/omp
Setting up Verlet run ...
  Unit style    : lj
  Current step  : 0
  Time step     : 0.005
Per MPI rank memory allocation (min/avg/max) = 50.05 | 50.05 | 50.05 Mbytes
   Step        Atoms         Temp          PotEng         KinEng         TotEng         Press     
         0       97336   1             -5.2202185      1.4999846     -3.7202339      2.6664572    
        50       97336   1.0287543     -5.2586006      1.5431157     -3.7154849      2.6395809    
Loop time of 0.690692 on 3 procs for 50 steps with 97336 atoms

Generated 0 of 0 mixed pair_coeff terms from geometric mixing rule
Last active /omp style is pair_style lj/cut/omp
Setting up Verlet run ...
  Unit style    : lj
  Current step  : 0
  Time step     : 0.005
Per MPI rank memory allocation (min/avg/max) = 50.05 | 50.05 | 50.05 Mbytes
   Step        Atoms         Temp          PotEng         KinEng         TotEng         Press     
         0       97336   1.0287543     -5.2586006      1.5431157     -3.7154849      2.6395809    
       500       97336   1.0493533     -5.2824008      1.5740138     -3.708387       2.8921121    
Loop time of 9.05078 on 3 procs for 500 steps with 97336 atoms

Performance: 23865.353 tau/day, 55.244 timesteps/s, 5.377 Matom-step/s
299.7% CPU use with 1 MPI tasks x 3 OpenMP threads

MPI task timing breakdown:
Section |  min time  |  avg time  |  max time  |%varavg| %total
---------------------------------------------------------------
Pair    | 4.8339     | 4.8339     | 4.8339     |   0.0 | 53.41
Neigh   | 3.7192     | 3.7192     | 3.7192     |   0.0 | 41.09
Comm    | 0.23628    | 0.23628    | 0.23628    |   0.0 |  2.61
Output  | 0.00035166 | 0.00035166 | 0.00035166 |   0.0 |  0.00
Modify  | 0.1487     | 0.1487     | 0.1487     |   0.0 |  1.64
Other   |            | 0.1123     |            |       |  1.24

Nlocal:          97336 ave       97336 max       97336 min
Histogram: 1 0 0 0 0 0 0 0 0 0
Nghost:          37573 ave       37573 max       37573 min
Histogram: 1 0 0 0 0 0 0 0 0 0
Neighs:    3.66996e+06 ave 3.66996e+06 max 3.66996e+06 min
Histogram: 1 0 0 0 0 0 0 0 0 0

Total # of neighbors = 3669955
Ave neighs/atom = 37.703984
Neighbor list builds = 83
Dangerous builds = 0
Total wall time: 0:00:10
