LAMMPS (22 Jul 2025 - Update 4)
  using 4 OpenMP thread(s) per MPI task
using multi-threaded neighbor list subroutines
Reading data file ...
  orthogonal box = (-26.981022 -26.981022 -26.981022) to (26.981022 26.981022 26.981022)
  1 by 1 by 1 MPI processor grid
  reading atoms ...
  132651 atoms
  read_data CPU = 0.231 seconds
N        = 132651
atoms    = 132651
L        = 53.962044219575
spacing  = 1.05807929842304
rho      = 0.8442
dt       = 0.005
steps    = 500
Generated 0 of 0 mixed pair_coeff terms from geometric mixing rule
Last active /omp style is pair_style lj/cut/omp
Neighbor list info ...
  update: every = 1 steps, delay = 0 steps, check = yes
  max neighbors/atom: 2000, page size: 100000
  master list distance cutoff = 2.8
  ghost atom cutoff = 2.8
  binsize = 1.4, bins = 39 39 39
  1 neighbor lists, perpetual/occasional/extra = 1 0 0
  (1) pair lj/cut/omp, perpetual
      attributes: half, newton on, omp
      pair build: half/bin/atomonly/newton/omp
      stencil: half/bin/3d
      bin: standard
Setting up Verlet run ...
  Unit style    : lj
  Current step  : 0
  Time step     : 0.005
Per MPI rank memory allocation (min/avg/max) = 72.96 | 72.96 | 72.96 Mbytes
   Step        Atoms         Temp          PotEng         KinEng         TotEng         Press     
         0      132651   1             -5.2202185      1.4999887     -3.7202298      2.6664596    
Loop time of 7.14e-07 on 4 procs for 0 steps with 132651 atoms

1120.4% CPU use with 1 MPI tasks x 4 OpenMP threads

MPI task timing breakdown:
Section |  min time  |  avg time  |  max time  |%varavg| %total
---------------------------------------------------------------
Pair    | 0          | 0          | 0          |   0.0 |  0.00
Neigh   | 0          | 0          | 0          |   0.0 |  0.00
Comm    | 0          | 0          | 0          |   0.0 |  0.00
Output  | 0          | 0          | 0          |   0.0 |  0.00
Modify  | 0          | 0          | 0          |   0.0 |  0.00
Other   |            | 7.14e-07   |            |       |100.00

Nlocal:         132651 ave      132651 max      132651 min
Histogram: 1 0 0 0 0 0 0 0 0 0
Nghost:          52542 ave       52542 max       52542 min
Histogram: 1 0 0 0 0 0 0 0 0 0
Neighs:    5.30604e+06 ave 5.30604e+06 max 5.30604e+06 min
Histogram: 1 0 0 0 0 0 0 0 0 0

Total # of neighbors = 5306040
Ave neighs/atom = 40
Neighbor list builds = 0
Dangerous builds = 0
Generated 0 of 0 mixed pair_coeff terms from geometric mixing rule
Last active /omp style is pair_style lj/cut/omp
Setting up Verlet run ...
  Unit style    : lj
  Current step  : 0
  Time step     : 0.005
Per MPI rank memory allocation (min/avg/max) = 72.96 | 72.96 | 72.96 Mbytes
   Step        Atoms         Temp          PotEng         KinEng         TotEng         Press     
         0      132651   1             -5.2202185      1.4999887     -3.7202298      2.6664596    
        50      132651   1.0309001     -5.2616925      1.5463385     -3.7153541      2.627466     
Loop time of 0.722733 on 4 procs for 50 steps with 132651 atoms

Generated 0 of 0 mixed pair_coeff terms from geometric mixing rule
Last active /omp style is pair_style lj/cut/omp
Setting up Verlet run ...
  Unit style    : lj
  Current step  : 0
  Time step     : 0.005
Per MPI rank memory allocation (min/avg/max) = 72.96 | 72.96 | 72.96 Mbytes
   Step        Atoms         Temp          PotEng         KinEng         TotEng         Press     
         0      132651   1.0309001     -5.2616925      1.5463385     -3.7153541      2.627466     
       500      132651   1.0516896     -5.285864       1.5775225     -3.7083415      2.8717353    
Loop time of 9.35211 on 4 procs for 500 steps with 132651 atoms

Performance: 23096.385 tau/day, 53.464 timesteps/s, 7.092 Matom-step/s
399.4% CPU use with 1 MPI tasks x 4 OpenMP threads

MPI task timing breakdown:
Section |  min time  |  avg time  |  max time  |%varavg| %total
---------------------------------------------------------------
Pair    | 4.97       | 4.97       | 4.97       |   0.0 | 53.14
Neigh   | 3.7585     | 3.7585     | 3.7585     |   0.0 | 40.19
Comm    | 0.30345    | 0.30345    | 0.30345    |   0.0 |  3.24
Output  | 0.00048569 | 0.00048569 | 0.00048569 |   0.0 |  0.01
Modify  | 0.17188    | 0.17188    | 0.17188    |   0.0 |  1.84
Other   |            | 0.1478     |            |       |  1.58

Nlocal:         132651 ave      132651 max      132651 min
Histogram: 1 0 0 0 0 0 0 0 0 0
Nghost:          45791 ave       45791 max       45791 min
Histogram: 1 0 0 0 0 0 0 0 0 0
Neighs:    5.00316e+06 ave 5.00316e+06 max 5.00316e+06 min
Histogram: 1 0 0 0 0 0 0 0 0 0

Total # of neighbors = 5003160
Ave neighs/atom = 37.716715
Neighbor list builds = 82
Dangerous builds = 0
Total wall time: 0:00:10
