LAMMPS (22 Jul 2025 - Update 4)
  using 32 OpenMP thread(s) per MPI task
using multi-threaded neighbor list subroutines
Reading data file ...
  orthogonal box = (-53.962044 -53.962044 -53.962044) to (53.962044 53.962044 53.962044)
  1 by 1 by 1 MPI processor grid
  reading atoms ...
  1061208 atoms
  read_data CPU = 1.906 seconds
N        = 1061208
atoms    = 1061208
L        = 107.92408843915
spacing  = 1.05807929842304
rho      = 0.8442
dt       = 0.0000001
steps    = 500
Generated 0 of 0 mixed pair_coeff terms from geometric mixing rule
Last active /omp style is pair_style lj/cut/omp
Neighbor list info ...
  update: every = 1 steps, delay = 0 steps, check = yes
  max neighbors/atom: 2000, page size: 100000
  master list distance cutoff = 2.8
  ghost atom cutoff = 2.8
  binsize = 1.4, bins = 78 78 78
  1 neighbor lists, perpetual/occasional/extra = 1 0 0
  (1) pair lj/cut/omp, perpetual
      attributes: half, newton on, omp
      pair build: half/bin/atomonly/newton/omp
      stencil: half/bin/3d
      bin: standard
Setting up Verlet run ...
  Unit style    : lj
  Current step  : 0
  Time step     : 1e-07
Per MPI rank memory allocation (min/avg/max) = 1579 | 1579 | 1579 Mbytes
   Step        Atoms         Temp          PotEng         KinEng         TotEng         Press     
         0     1061208   1             -5.2202185      1.4999986     -3.7202199      2.6664651    
Loop time of 1.516e-06 on 32 procs for 0 steps with 1061208 atoms

9102.9% CPU use with 1 MPI tasks x 32 OpenMP threads

MPI task timing breakdown:
Section |  min time  |  avg time  |  max time  |%varavg| %total
---------------------------------------------------------------
Pair    | 0          | 0          | 0          |   0.0 |  0.00
Neigh   | 0          | 0          | 0          |   0.0 |  0.00
Comm    | 0          | 0          | 0          |   0.0 |  0.00
Output  | 0          | 0          | 0          |   0.0 |  0.00
Modify  | 0          | 0          | 0          |   0.0 |  0.00
Other   |            | 1.516e-06  |            |       |100.00

Nlocal:    1.06121e+06 ave 1.06121e+06 max 1.06121e+06 min
Histogram: 1 0 0 0 0 0 0 0 0 0
Nghost:         198504 ave      198504 max      198504 min
Histogram: 1 0 0 0 0 0 0 0 0 0
Neighs:    4.24483e+07 ave 4.24483e+07 max 4.24483e+07 min
Histogram: 1 0 0 0 0 0 0 0 0 0

Total # of neighbors = 42448320
Ave neighs/atom = 40
Neighbor list builds = 0
Dangerous builds = 0
Generated 0 of 0 mixed pair_coeff terms from geometric mixing rule
Last active /omp style is pair_style lj/cut/omp
Setting up Verlet run ...
  Unit style    : lj
  Current step  : 0
  Time step     : 1e-07
Per MPI rank memory allocation (min/avg/max) = 1579 | 1579 | 1579 Mbytes
   Step        Atoms         Temp          PotEng         KinEng         TotEng         Press     
         0     1061208   1             -5.2202185      1.4999986     -3.7202199      2.6664651    
        50     1061208   0.99999999    -5.2202185      1.4999986     -3.7202199      2.6664652    
Loop time of 1.32299 on 32 procs for 50 steps with 1061208 atoms

Generated 0 of 0 mixed pair_coeff terms from geometric mixing rule
Last active /omp style is pair_style lj/cut/omp
Setting up Verlet run ...
  Unit style    : lj
  Current step  : 0
  Time step     : 1e-07
Per MPI rank memory allocation (min/avg/max) = 1579 | 1579 | 1579 Mbytes
   Step        Atoms         Temp          PotEng         KinEng         TotEng         Press     
         0     1061208   0.99999999    -5.2202185      1.4999986     -3.7202199      2.6664652    
       500     1061208   0.99999906    -5.2202171      1.4999972     -3.7202199      2.6664704    
Loop time of 13.0334 on 32 procs for 500 steps with 1061208 atoms

Performance: 0.331 tau/day, 38.363 timesteps/s, 40.711 Matom-step/s
3181.4% CPU use with 1 MPI tasks x 32 OpenMP threads

MPI task timing breakdown:
Section |  min time  |  avg time  |  max time  |%varavg| %total
---------------------------------------------------------------
Pair    | 6.0977     | 6.0977     | 6.0977     |   0.0 | 46.79
Neigh   | 0          | 0          | 0          |   0.0 |  0.00
Comm    | 1.1451     | 1.1451     | 1.1451     |   0.0 |  8.79
Output  | 0.0030279  | 0.0030279  | 0.0030279  |   0.0 |  0.02
Modify  | 3.7092     | 3.7092     | 3.7092     |   0.0 | 28.46
Other   |            | 2.078      |            |       | 15.95

Nlocal:    1.06121e+06 ave 1.06121e+06 max 1.06121e+06 min
Histogram: 1 0 0 0 0 0 0 0 0 0
Nghost:         198504 ave      198504 max      198504 min
Histogram: 1 0 0 0 0 0 0 0 0 0
Neighs:    4.24483e+07 ave 4.24483e+07 max 4.24483e+07 min
Histogram: 1 0 0 0 0 0 0 0 0 0

Total # of neighbors = 42448320
Ave neighs/atom = 40
Neighbor list builds = 0
Dangerous builds = 0
Total wall time: 0:00:17
