LAMMPS (22 Jul 2025 - Update 4)
  using 6 OpenMP thread(s) per MPI task
using multi-threaded neighbor list subroutines
Reading data file ...
  orthogonal box = (-30.6843 -30.6843 -30.6843) to (30.6843 30.6843 30.6843)
  1 by 1 by 1 MPI processor grid
  reading atoms ...
  195112 atoms
  read_data CPU = 0.339 seconds
N        = 195112
atoms    = 195112
L        = 61.3685993085363
spacing  = 1.05807929842304
rho      = 0.8442
dt       = 0.005
steps    = 500
Generated 0 of 0 mixed pair_coeff terms from geometric mixing rule
Last active /omp style is pair_style lj/cut/omp
Neighbor list info ...
  update: every = 1 steps, delay = 0 steps, check = yes
  max neighbors/atom: 2000, page size: 100000
  master list distance cutoff = 2.8
  ghost atom cutoff = 2.8
  binsize = 1.4, bins = 44 44 44
  1 neighbor lists, perpetual/occasional/extra = 1 0 0
  (1) pair lj/cut/omp, perpetual
      attributes: half, newton on, omp
      pair build: half/bin/atomonly/newton/omp
      stencil: half/bin/3d
      bin: standard
Setting up Verlet run ...
  Unit style    : lj
  Current step  : 0
  Time step     : 0.005
Per MPI rank memory allocation (min/avg/max) = 116.9 | 116.9 | 116.9 Mbytes
   Step        Atoms         Temp          PotEng         KinEng         TotEng         Press     
         0      195112   1             -5.2202185      1.4999923     -3.7202262      2.6664616    
Loop time of 6.94e-07 on 6 procs for 0 steps with 195112 atoms

1152.7% CPU use with 1 MPI tasks x 6 OpenMP threads

MPI task timing breakdown:
Section |  min time  |  avg time  |  max time  |%varavg| %total
---------------------------------------------------------------
Pair    | 0          | 0          | 0          |   0.0 |  0.00
Neigh   | 0          | 0          | 0          |   0.0 |  0.00
Comm    | 0          | 0          | 0          |   0.0 |  0.00
Output  | 0          | 0          | 0          |   0.0 |  0.00
Modify  | 0          | 0          | 0          |   0.0 |  0.00
Other   |            | 6.94e-07   |            |       |100.00

Nlocal:         195112 ave      195112 max      195112 min
Histogram: 1 0 0 0 0 0 0 0 0 0
Nghost:          67032 ave       67032 max       67032 min
Histogram: 1 0 0 0 0 0 0 0 0 0
Neighs:    7.80448e+06 ave 7.80448e+06 max 7.80448e+06 min
Histogram: 1 0 0 0 0 0 0 0 0 0

Total # of neighbors = 7804480
Ave neighs/atom = 40
Neighbor list builds = 0
Dangerous builds = 0
Generated 0 of 0 mixed pair_coeff terms from geometric mixing rule
Last active /omp style is pair_style lj/cut/omp
Setting up Verlet run ...
  Unit style    : lj
  Current step  : 0
  Time step     : 0.005
Per MPI rank memory allocation (min/avg/max) = 116.9 | 116.9 | 116.9 Mbytes
   Step        Atoms         Temp          PotEng         KinEng         TotEng         Press     
         0      195112   1             -5.2202185      1.4999923     -3.7202262      2.6664616    
        50      195112   1.0280607     -5.257549       1.5420831     -3.715466       2.642987     
Loop time of 0.760964 on 6 procs for 50 steps with 195112 atoms

Generated 0 of 0 mixed pair_coeff terms from geometric mixing rule
Last active /omp style is pair_style lj/cut/omp
Setting up Verlet run ...
  Unit style    : lj
  Current step  : 0
  Time step     : 0.005
Per MPI rank memory allocation (min/avg/max) = 116.9 | 116.9 | 116.9 Mbytes
   Step        Atoms         Temp          PotEng         KinEng         TotEng         Press     
         0      195112   1.0280607     -5.257549       1.5420831     -3.715466       2.642987     
       500      195112   1.0528722     -5.2875687      1.5793001     -3.7082686      2.8643054    
Loop time of 9.59752 on 6 procs for 500 steps with 195112 atoms

Performance: 22505.812 tau/day, 52.097 timesteps/s, 10.165 Matom-step/s
598.8% CPU use with 1 MPI tasks x 6 OpenMP threads

MPI task timing breakdown:
Section |  min time  |  avg time  |  max time  |%varavg| %total
---------------------------------------------------------------
Pair    | 4.9159     | 4.9159     | 4.9159     |   0.0 | 51.22
Neigh   | 3.8008     | 3.8008     | 3.8008     |   0.0 | 39.60
Comm    | 0.42818    | 0.42818    | 0.42818    |   0.0 |  4.46
Output  | 0.00076307 | 0.00076307 | 0.00076307 |   0.0 |  0.01
Modify  | 0.21029    | 0.21029    | 0.21029    |   0.0 |  2.19
Other   |            | 0.2416     |            |       |  2.52

Nlocal:         195112 ave      195112 max      195112 min
Histogram: 1 0 0 0 0 0 0 0 0 0
Nghost:          58389 ave       58389 max       58389 min
Histogram: 1 0 0 0 0 0 0 0 0 0
Neighs:    7.35782e+06 ave 7.35782e+06 max 7.35782e+06 min
Histogram: 1 0 0 0 0 0 0 0 0 0

Total # of neighbors = 7357822
Ave neighs/atom = 37.710761
Neighbor list builds = 83
Dangerous builds = 0
Total wall time: 0:00:10
