LAMMPS (22 Jul 2025 - Update 4)
  using 56 OpenMP thread(s) per MPI task
using multi-threaded neighbor list subroutines
Reading data file ...
  orthogonal box = (-64.542837 -64.542837 -64.542837) to (64.542837 64.542837 64.542837)
  1 by 1 by 1 MPI processor grid
  reading atoms ...
  1815848 atoms
  read_data CPU = 3.252 seconds
N        = 1815848
atoms    = 1815848
L        = 129.085674407611
spacing  = 1.05807929842304
rho      = 0.8442
dt       = 0.005
steps    = 200
Generated 0 of 0 mixed pair_coeff terms from geometric mixing rule
Last active /omp style is pair_style lj/cut/omp
Neighbor list info ...
  update: every = 1 steps, delay = 0 steps, check = yes
  max neighbors/atom: 2000, page size: 100000
  master list distance cutoff = 2.8
  ghost atom cutoff = 2.8
  binsize = 1.4, bins = 93 93 93
  1 neighbor lists, perpetual/occasional/extra = 1 0 0
  (1) pair lj/cut/omp, perpetual
      attributes: half, newton on, omp
      pair build: half/bin/atomonly/newton/omp
      stencil: half/bin/3d
      bin: standard
Setting up Verlet run ...
  Unit style    : lj
  Current step  : 0
  Time step     : 0.005
Per MPI rank memory allocation (min/avg/max) = 4176 | 4176 | 4176 Mbytes
   Step        Atoms         Temp          PotEng         KinEng         TotEng         Press     
         0     1815848   1             -5.2202185      1.4999992     -3.7202193      2.6664655    
Loop time of 2.286e-06 on 56 procs for 0 steps with 1815848 atoms

19772.5% CPU use with 1 MPI tasks x 56 OpenMP threads

MPI task timing breakdown:
Section |  min time  |  avg time  |  max time  |%varavg| %total
---------------------------------------------------------------
Pair    | 0          | 0          | 0          |   0.0 |  0.00
Neigh   | 0          | 0          | 0          |   0.0 |  0.00
Comm    | 0          | 0          | 0          |   0.0 |  0.00
Output  | 0          | 0          | 0          |   0.0 |  0.00
Modify  | 0          | 0          | 0          |   0.0 |  0.00
Other   |            | 2.286e-06  |            |       |100.00

Nlocal:    1.81585e+06 ave 1.81585e+06 max 1.81585e+06 min
Histogram: 1 0 0 0 0 0 0 0 0 0
Nghost:         281304 ave      281304 max      281304 min
Histogram: 1 0 0 0 0 0 0 0 0 0
Neighs:    7.26339e+07 ave 7.26339e+07 max 7.26339e+07 min
Histogram: 1 0 0 0 0 0 0 0 0 0

Total # of neighbors = 72633920
Ave neighs/atom = 40
Neighbor list builds = 0
Dangerous builds = 0
Generated 0 of 0 mixed pair_coeff terms from geometric mixing rule
Last active /omp style is pair_style lj/cut/omp
Setting up Verlet run ...
  Unit style    : lj
  Current step  : 0
  Time step     : 0.005
Per MPI rank memory allocation (min/avg/max) = 4176 | 4176 | 4176 Mbytes
   Step        Atoms         Temp          PotEng         KinEng         TotEng         Press     
         0     1815848   1             -5.2202185      1.4999992     -3.7202193      2.6664655    
        20     1815848   0.67517013    -4.7464974      1.0127546     -3.7337428      4.4945584    
Loop time of 1.71186 on 56 procs for 20 steps with 1815848 atoms

Generated 0 of 0 mixed pair_coeff terms from geometric mixing rule
Last active /omp style is pair_style lj/cut/omp
Setting up Verlet run ...
  Unit style    : lj
  Current step  : 0
  Time step     : 0.005
Per MPI rank memory allocation (min/avg/max) = 4176 | 4176 | 4176 Mbytes
   Step        Atoms         Temp          PotEng         KinEng         TotEng         Press     
         0     1815848   0.67517013    -4.7464974      1.0127546     -3.7337428      4.4945584    
       200     1815848   1.0508307     -5.2844536      1.5762451     -3.7082085      2.876546     
Loop time of 14.53 on 56 procs for 200 steps with 1815848 atoms

Performance: 5946.317 tau/day, 13.765 timesteps/s, 24.994 Matom-step/s
5573.2% CPU use with 1 MPI tasks x 56 OpenMP threads

MPI task timing breakdown:
Section |  min time  |  avg time  |  max time  |%varavg| %total
---------------------------------------------------------------
Pair    | 6.8196     | 6.8196     | 6.8196     |   0.0 | 46.93
Neigh   | 1.9457     | 1.9457     | 1.9457     |   0.0 | 13.39
Comm    | 1.4521     | 1.4521     | 1.4521     |   0.0 |  9.99
Output  | 0.0044899  | 0.0044899  | 0.0044899  |   0.0 |  0.03
Modify  | 3.0457     | 3.0457     | 3.0457     |   0.0 | 20.96
Other   |            | 1.262      |            |       |  8.69

Nlocal:    1.81585e+06 ave 1.81585e+06 max 1.81585e+06 min
Histogram: 1 0 0 0 0 0 0 0 0 0
Nghost:         247692 ave      247692 max      247692 min
Histogram: 1 0 0 0 0 0 0 0 0 0
Neighs:    6.85152e+07 ave 6.85152e+07 max 6.85152e+07 min
Histogram: 1 0 0 0 0 0 0 0 0 0

Total # of neighbors = 68515209
Ave neighs/atom = 37.731797
Neighbor list builds = 32
Dangerous builds = 0
Total wall time: 0:00:22
