LAMMPS (22 Jul 2025 - Update 4)
  using 1 OpenMP thread(s) per MPI task
using multi-threaded neighbor list subroutines
Reading data file ...
  orthogonal box = (-16.929269 -16.929269 -16.929269) to (16.929269 16.929269 16.929269)
  1 by 1 by 1 MPI processor grid
  reading atoms ...
  32768 atoms
  read_data CPU = 0.063 seconds
N        = 32768
atoms    = 32768
L        = 33.8585375495373
spacing  = 1.05807929842304
rho      = 0.8442
dt       = 0.005
steps    = 500
Generated 0 of 0 mixed pair_coeff terms from geometric mixing rule
Last active /omp style is pair_style lj/cut/omp
Neighbor list info ...
  update: every = 1 steps, delay = 0 steps, check = yes
  max neighbors/atom: 2000, page size: 100000
  master list distance cutoff = 2.8
  ghost atom cutoff = 2.8
  binsize = 1.4, bins = 25 25 25
  1 neighbor lists, perpetual/occasional/extra = 1 0 0
  (1) pair lj/cut/omp, perpetual
      attributes: half, newton on, omp
      pair build: half/bin/atomonly/newton/omp
      stencil: half/bin/3d
      bin: standard
Setting up Verlet run ...
  Unit style    : lj
  Current step  : 0
  Time step     : 0.005
Per MPI rank memory allocation (min/avg/max) = 16.24 | 16.24 | 16.24 Mbytes
   Step        Atoms         Temp          PotEng         KinEng         TotEng         Press     
         0       32768   1             -5.2202185      1.4999542     -3.7202643      2.6664402    
Loop time of 5.29e-07 on 1 procs for 0 steps with 32768 atoms

189.0% CPU use with 1 MPI tasks x 1 OpenMP threads

MPI task timing breakdown:
Section |  min time  |  avg time  |  max time  |%varavg| %total
---------------------------------------------------------------
Pair    | 0          | 0          | 0          |   0.0 |  0.00
Neigh   | 0          | 0          | 0          |   0.0 |  0.00
Comm    | 0          | 0          | 0          |   0.0 |  0.00
Output  | 0          | 0          | 0          |   0.0 |  0.00
Modify  | 0          | 0          | 0          |   0.0 |  0.00
Other   |            | 5.29e-07   |            |       |100.00

Nlocal:          32768 ave       32768 max       32768 min
Histogram: 1 0 0 0 0 0 0 0 0 0
Nghost:          22104 ave       22104 max       22104 min
Histogram: 1 0 0 0 0 0 0 0 0 0
Neighs:    1.31072e+06 ave 1.31072e+06 max 1.31072e+06 min
Histogram: 1 0 0 0 0 0 0 0 0 0

Total # of neighbors = 1310720
Ave neighs/atom = 40
Neighbor list builds = 0
Dangerous builds = 0
Generated 0 of 0 mixed pair_coeff terms from geometric mixing rule
Last active /omp style is pair_style lj/cut/omp
Setting up Verlet run ...
  Unit style    : lj
  Current step  : 0
  Time step     : 0.005
Per MPI rank memory allocation (min/avg/max) = 16.24 | 16.24 | 16.24 Mbytes
   Step        Atoms         Temp          PotEng         KinEng         TotEng         Press     
         0       32768   1             -5.2202185      1.4999542     -3.7202643      2.6664402    
        50       32768   1.0291697     -5.2591086      1.5437075     -3.7154012      2.6346935    
Loop time of 0.594493 on 1 procs for 50 steps with 32768 atoms

Generated 0 of 0 mixed pair_coeff terms from geometric mixing rule
Last active /omp style is pair_style lj/cut/omp
Setting up Verlet run ...
  Unit style    : lj
  Current step  : 0
  Time step     : 0.005
Per MPI rank memory allocation (min/avg/max) = 16.24 | 16.24 | 16.24 Mbytes
   Step        Atoms         Temp          PotEng         KinEng         TotEng         Press     
         0       32768   1.0291697     -5.2591086      1.5437075     -3.7154012      2.6346935    
       500       32768   1.0573918     -5.2945028      1.5860394     -3.7084635      2.8441271    
Loop time of 8.33029 on 1 procs for 500 steps with 32768 atoms

Performance: 25929.467 tau/day, 60.022 timesteps/s, 1.967 Matom-step/s
100.0% CPU use with 1 MPI tasks x 1 OpenMP threads

MPI task timing breakdown:
Section |  min time  |  avg time  |  max time  |%varavg| %total
---------------------------------------------------------------
Pair    | 4.8371     | 4.8371     | 4.8371     |   0.0 | 58.07
Neigh   | 3.2773     | 3.2773     | 3.2773     |   0.0 | 39.34
Comm    | 0.081495   | 0.081495   | 0.081495   |   0.0 |  0.98
Output  | 4.8727e-05 | 4.8727e-05 | 4.8727e-05 |   0.0 |  0.00
Modify  | 0.097867   | 0.097867   | 0.097867   |   0.0 |  1.17
Other   |            | 0.03651    |            |       |  0.44

Nlocal:          32768 ave       32768 max       32768 min
Histogram: 1 0 0 0 0 0 0 0 0 0
Nghost:          19053 ave       19053 max       19053 min
Histogram: 1 0 0 0 0 0 0 0 0 0
Neighs:    1.23567e+06 ave 1.23567e+06 max 1.23567e+06 min
Histogram: 1 0 0 0 0 0 0 0 0 0

Total # of neighbors = 1235669
Ave neighs/atom = 37.709625
Neighbor list builds = 77
Dangerous builds = 0
Total wall time: 0:00:09
