LAMMPS (22 Jul 2025 - Update 4)
  using 1 OpenMP thread(s) per MPI task
using multi-threaded neighbor list subroutines
Reading data file ...
  orthogonal box = (-16.929269 -16.929269 -16.929269) to (16.929269 16.929269 16.929269)
  1 by 1 by 1 MPI processor grid
  reading atoms ...
  32768 atoms
  read_data CPU = 0.063 seconds
N        = 32768
atoms    = 32768
L        = 33.8585375495373
spacing  = 1.05807929842304
rho      = 0.8442
dt       = 0.005
steps    = 200
Generated 0 of 0 mixed pair_coeff terms from geometric mixing rule
Last active /omp style is pair_style lj/cut/omp
Neighbor list info ...
  update: every = 1 steps, delay = 0 steps, check = yes
  max neighbors/atom: 2000, page size: 100000
  master list distance cutoff = 2.8
  ghost atom cutoff = 2.8
  binsize = 1.4, bins = 25 25 25
  1 neighbor lists, perpetual/occasional/extra = 1 0 0
  (1) pair lj/cut/omp, perpetual
      attributes: half, newton on, omp
      pair build: half/bin/atomonly/newton/omp
      stencil: half/bin/3d
      bin: standard
Setting up Verlet run ...
  Unit style    : lj
  Current step  : 0
  Time step     : 0.005
Per MPI rank memory allocation (min/avg/max) = 16.24 | 16.24 | 16.24 Mbytes
   Step        Atoms         Temp          PotEng         KinEng         TotEng         Press     
         0       32768   1             -5.2202185      1.4999542     -3.7202643      2.6664402    
Loop time of 5.15e-07 on 1 procs for 0 steps with 32768 atoms

388.3% CPU use with 1 MPI tasks x 1 OpenMP threads

MPI task timing breakdown:
Section |  min time  |  avg time  |  max time  |%varavg| %total
---------------------------------------------------------------
Pair    | 0          | 0          | 0          |   0.0 |  0.00
Neigh   | 0          | 0          | 0          |   0.0 |  0.00
Comm    | 0          | 0          | 0          |   0.0 |  0.00
Output  | 0          | 0          | 0          |   0.0 |  0.00
Modify  | 0          | 0          | 0          |   0.0 |  0.00
Other   |            | 5.15e-07   |            |       |100.00

Nlocal:          32768 ave       32768 max       32768 min
Histogram: 1 0 0 0 0 0 0 0 0 0
Nghost:          22104 ave       22104 max       22104 min
Histogram: 1 0 0 0 0 0 0 0 0 0
Neighs:    1.31072e+06 ave 1.31072e+06 max 1.31072e+06 min
Histogram: 1 0 0 0 0 0 0 0 0 0

Total # of neighbors = 1310720
Ave neighs/atom = 40
Neighbor list builds = 0
Dangerous builds = 0
Generated 0 of 0 mixed pair_coeff terms from geometric mixing rule
Last active /omp style is pair_style lj/cut/omp
Setting up Verlet run ...
  Unit style    : lj
  Current step  : 0
  Time step     : 0.005
Per MPI rank memory allocation (min/avg/max) = 16.24 | 16.24 | 16.24 Mbytes
   Step        Atoms         Temp          PotEng         KinEng         TotEng         Press     
         0       32768   1             -5.2202185      1.4999542     -3.7202643      2.6664402    
        20       32768   0.67425592    -4.7449194      1.011353      -3.7335664      4.5012239    
Loop time of 0.151859 on 1 procs for 20 steps with 32768 atoms

Generated 0 of 0 mixed pair_coeff terms from geometric mixing rule
Last active /omp style is pair_style lj/cut/omp
Setting up Verlet run ...
  Unit style    : lj
  Current step  : 0
  Time step     : 0.005
Per MPI rank memory allocation (min/avg/max) = 16.24 | 16.24 | 16.24 Mbytes
   Step        Atoms         Temp          PotEng         KinEng         TotEng         Press     
         0       32768   0.67425592    -4.7449194      1.011353      -3.7335664      4.5012239    
       200       32768   1.054386      -5.2898553      1.5815307     -3.7083246      2.8604533    
Loop time of 3.23909 on 1 procs for 200 steps with 32768 atoms

Performance: 26674.173 tau/day, 61.746 timesteps/s, 2.023 Matom-step/s
99.9% CPU use with 1 MPI tasks x 1 OpenMP threads

MPI task timing breakdown:
Section |  min time  |  avg time  |  max time  |%varavg| %total
---------------------------------------------------------------
Pair    | 1.9397     | 1.9397     | 1.9397     |   0.0 | 59.89
Neigh   | 1.2147     | 1.2147     | 1.2147     |   0.0 | 37.50
Comm    | 0.03095    | 0.03095    | 0.03095    |   0.0 |  0.96
Output  | 8.4993e-05 | 8.4993e-05 | 8.4993e-05 |   0.0 |  0.00
Modify  | 0.039186   | 0.039186   | 0.039186   |   0.0 |  1.21
Other   |            | 0.01439    |            |       |  0.44

Nlocal:          32768 ave       32768 max       32768 min
Histogram: 1 0 0 0 0 0 0 0 0 0
Nghost:          19126 ave       19126 max       19126 min
Histogram: 1 0 0 0 0 0 0 0 0 0
Neighs:    1.23668e+06 ave 1.23668e+06 max 1.23668e+06 min
Histogram: 1 0 0 0 0 0 0 0 0 0

Total # of neighbors = 1236676
Ave neighs/atom = 37.740356
Neighbor list builds = 29
Dangerous builds = 0
Total wall time: 0:00:03
