LAMMPS (22 Jul 2025 - Update 4)
  using 11 OpenMP thread(s) per MPI task
using multi-threaded neighbor list subroutines
Reading data file ...
  orthogonal box = (-37.561815 -37.561815 -37.561815) to (37.561815 37.561815 37.561815)
  1 by 1 by 1 MPI processor grid
  reading atoms ...
  357911 atoms
  read_data CPU = 0.631 seconds
N        = 357911
atoms    = 357911
L        = 75.1236301880358
spacing  = 1.05807929842304
rho      = 0.8442
dt       = 0.0000001
steps    = 500
Generated 0 of 0 mixed pair_coeff terms from geometric mixing rule
Last active /omp style is pair_style lj/cut/omp
Neighbor list info ...
  update: every = 1 steps, delay = 0 steps, check = yes
  max neighbors/atom: 2000, page size: 100000
  master list distance cutoff = 2.8
  ghost atom cutoff = 2.8
  binsize = 1.4, bins = 54 54 54
  1 neighbor lists, perpetual/occasional/extra = 1 0 0
  (1) pair lj/cut/omp, perpetual
      attributes: half, newton on, omp
      pair build: half/bin/atomonly/newton/omp
      stencil: half/bin/3d
      bin: standard
Setting up Verlet run ...
  Unit style    : lj
  Current step  : 0
  Time step     : 1e-07
Per MPI rank memory allocation (min/avg/max) = 277 | 277 | 277 Mbytes
   Step        Atoms         Temp          PotEng         KinEng         TotEng         Press     
         0      357911   1             -5.2202185      1.4999958     -3.7202227      2.6664636    
Loop time of 1.165e-06 on 11 procs for 0 steps with 357911 atoms

2489.3% CPU use with 1 MPI tasks x 11 OpenMP threads

MPI task timing breakdown:
Section |  min time  |  avg time  |  max time  |%varavg| %total
---------------------------------------------------------------
Pair    | 0          | 0          | 0          |   0.0 |  0.00
Neigh   | 0          | 0          | 0          |   0.0 |  0.00
Comm    | 0          | 0          | 0          |   0.0 |  0.00
Output  | 0          | 0          | 0          |   0.0 |  0.00
Modify  | 0          | 0          | 0          |   0.0 |  0.00
Other   |            | 1.165e-06  |            |       |100.00

Nlocal:         357911 ave      357911 max      357911 min
Histogram: 1 0 0 0 0 0 0 0 0 0
Nghost:          98622 ave       98622 max       98622 min
Histogram: 1 0 0 0 0 0 0 0 0 0
Neighs:    1.43164e+07 ave 1.43164e+07 max 1.43164e+07 min
Histogram: 1 0 0 0 0 0 0 0 0 0

Total # of neighbors = 14316440
Ave neighs/atom = 40
Neighbor list builds = 0
Dangerous builds = 0
Generated 0 of 0 mixed pair_coeff terms from geometric mixing rule
Last active /omp style is pair_style lj/cut/omp
Setting up Verlet run ...
  Unit style    : lj
  Current step  : 0
  Time step     : 1e-07
Per MPI rank memory allocation (min/avg/max) = 277 | 277 | 277 Mbytes
   Step        Atoms         Temp          PotEng         KinEng         TotEng         Press     
         0      357911   1             -5.2202185      1.4999958     -3.7202227      2.6664636    
        50      357911   0.99999999    -5.2202185      1.4999958     -3.7202227      2.6664636    
Loop time of 0.414183 on 11 procs for 50 steps with 357911 atoms

Generated 0 of 0 mixed pair_coeff terms from geometric mixing rule
Last active /omp style is pair_style lj/cut/omp
Setting up Verlet run ...
  Unit style    : lj
  Current step  : 0
  Time step     : 1e-07
Per MPI rank memory allocation (min/avg/max) = 277 | 277 | 277 Mbytes
   Step        Atoms         Temp          PotEng         KinEng         TotEng         Press     
         0      357911   0.99999999    -5.2202185      1.4999958     -3.7202227      2.6664636    
       500      357911   0.99999906    -5.2202171      1.4999944     -3.7202227      2.6664689    
Loop time of 4.05129 on 11 procs for 500 steps with 357911 atoms

Performance: 1.066 tau/day, 123.417 timesteps/s, 44.172 Matom-step/s
1093.4% CPU use with 1 MPI tasks x 11 OpenMP threads

MPI task timing breakdown:
Section |  min time  |  avg time  |  max time  |%varavg| %total
---------------------------------------------------------------
Pair    | 2.4546     | 2.4546     | 2.4546     |   0.0 | 60.59
Neigh   | 0          | 0          | 0          |   0.0 |  0.00
Comm    | 0.4484     | 0.4484     | 0.4484     |   0.0 | 11.07
Output  | 0.001451   | 0.001451   | 0.001451   |   0.0 |  0.04
Modify  | 0.45107    | 0.45107    | 0.45107    |   0.0 | 11.13
Other   |            | 0.6957     |            |       | 17.17

Nlocal:         357911 ave      357911 max      357911 min
Histogram: 1 0 0 0 0 0 0 0 0 0
Nghost:          98622 ave       98622 max       98622 min
Histogram: 1 0 0 0 0 0 0 0 0 0
Neighs:    1.43164e+07 ave 1.43164e+07 max 1.43164e+07 min
Histogram: 1 0 0 0 0 0 0 0 0 0

Total # of neighbors = 14316440
Ave neighs/atom = 40
Neighbor list builds = 0
Dangerous builds = 0
Total wall time: 0:00:05
