LAMMPS (22 Jul 2025 - Update 4)
  using 37 OpenMP thread(s) per MPI task
using multi-threaded neighbor list subroutines
Reading data file ...
  orthogonal box = (-56.607242 -56.607242 -56.607242) to (56.607242 56.607242 56.607242)
  1 by 1 by 1 MPI processor grid
  reading atoms ...
  1225043 atoms
  read_data CPU = 2.158 seconds
N        = 1225043
atoms    = 1225043
L        = 113.214484931265
spacing  = 1.05807929842304
rho      = 0.8442
dt       = 0.005
steps    = 500
Generated 0 of 0 mixed pair_coeff terms from geometric mixing rule
Last active /omp style is pair_style lj/cut/omp
Neighbor list info ...
  update: every = 1 steps, delay = 0 steps, check = yes
  max neighbors/atom: 2000, page size: 100000
  master list distance cutoff = 2.8
  ghost atom cutoff = 2.8
  binsize = 1.4, bins = 81 81 81
  1 neighbor lists, perpetual/occasional/extra = 1 0 0
  (1) pair lj/cut/omp, perpetual
      attributes: half, newton on, omp
      pair build: half/bin/atomonly/newton/omp
      stencil: half/bin/3d
      bin: standard
Setting up Verlet run ...
  Unit style    : lj
  Current step  : 0
  Time step     : 0.005
Per MPI rank memory allocation (min/avg/max) = 2047 | 2047 | 2047 Mbytes
   Step        Atoms         Temp          PotEng         KinEng         TotEng         Press     
         0     1225043   1             -5.2202185      1.4999988     -3.7202197      2.6664652    
Loop time of 1.876e-06 on 37 procs for 0 steps with 1225043 atoms

11780.4% CPU use with 1 MPI tasks x 37 OpenMP threads

MPI task timing breakdown:
Section |  min time  |  avg time  |  max time  |%varavg| %total
---------------------------------------------------------------
Pair    | 0          | 0          | 0          |   0.0 |  0.00
Neigh   | 0          | 0          | 0          |   0.0 |  0.00
Comm    | 0          | 0          | 0          |   0.0 |  0.00
Output  | 0          | 0          | 0          |   0.0 |  0.00
Modify  | 0          | 0          | 0          |   0.0 |  0.00
Other   |            | 1.876e-06  |            |       |100.00

Nlocal:    1.22504e+06 ave 1.22504e+06 max 1.22504e+06 min
Histogram: 1 0 0 0 0 0 0 0 0 0
Nghost:         217854 ave      217854 max      217854 min
Histogram: 1 0 0 0 0 0 0 0 0 0
Neighs:    4.90017e+07 ave 4.90017e+07 max 4.90017e+07 min
Histogram: 1 0 0 0 0 0 0 0 0 0

Total # of neighbors = 49001720
Ave neighs/atom = 40
Neighbor list builds = 0
Dangerous builds = 0
Generated 0 of 0 mixed pair_coeff terms from geometric mixing rule
Last active /omp style is pair_style lj/cut/omp
Setting up Verlet run ...
  Unit style    : lj
  Current step  : 0
  Time step     : 0.005
Per MPI rank memory allocation (min/avg/max) = 2047 | 2047 | 2047 Mbytes
   Step        Atoms         Temp          PotEng         KinEng         TotEng         Press     
         0     1225043   1             -5.2202185      1.4999988     -3.7202197      2.6664652    
        50     1225043   1.0275213     -5.2567596      1.5412808     -3.7154789      2.6469973    
Loop time of 2.16394 on 37 procs for 50 steps with 1225043 atoms

Generated 0 of 0 mixed pair_coeff terms from geometric mixing rule
Last active /omp style is pair_style lj/cut/omp
Setting up Verlet run ...
  Unit style    : lj
  Current step  : 0
  Time step     : 0.005
Per MPI rank memory allocation (min/avg/max) = 2047 | 2047 | 2047 Mbytes
   Step        Atoms         Temp          PotEng         KinEng         TotEng         Press     
         0     1225043   1.0275213     -5.2567596      1.5412808     -3.7154789      2.6469973    
       500     1225043   1.0540944     -5.2894938      1.5811403     -3.7083535      2.8583512    
Loop time of 23.9687 on 37 procs for 500 steps with 1225043 atoms

Performance: 9011.760 tau/day, 20.861 timesteps/s, 25.555 Matom-step/s
3682.8% CPU use with 1 MPI tasks x 37 OpenMP threads

MPI task timing breakdown:
Section |  min time  |  avg time  |  max time  |%varavg| %total
---------------------------------------------------------------
Pair    | 10.297     | 10.297     | 10.297     |   0.0 | 42.96
Neigh   | 4.8152     | 4.8152     | 4.8152     |   0.0 | 20.09
Comm    | 2.6361     | 2.6361     | 2.6361     |   0.0 | 11.00
Output  | 0.0031948  | 0.0031948  | 0.0031948  |   0.0 |  0.01
Modify  | 4.1851     | 4.1851     | 4.1851     |   0.0 | 17.46
Other   |            | 2.033      |            |       |  8.48

Nlocal:    1.22504e+06 ave 1.22504e+06 max 1.22504e+06 min
Histogram: 1 0 0 0 0 0 0 0 0 0
Nghost:         191053 ave      191053 max      191053 min
Histogram: 1 0 0 0 0 0 0 0 0 0
Neighs:     4.6198e+07 ave  4.6198e+07 max  4.6198e+07 min
Histogram: 1 0 0 0 0 0 0 0 0 0

Total # of neighbors = 46197997
Ave neighs/atom = 37.711327
Neighbor list builds = 84
Dangerous builds = 0
Total wall time: 0:00:29
